REMARK  Name = 
REMARK  12 active torsions:
REMARK  status: ('A' for Active; 'I' for Inactive)
REMARK    1  A    between atoms: C_1  and  O_2
REMARK    2  A    between atoms: O_2  and  C_3
REMARK    3  A    between atoms: C_5  and  C_6
REMARK    4  A    between atoms: C_7  and  C_8
REMARK    5  A    between atoms: C_8  and  C_10
REMARK    6  A    between atoms: C_10  and  C_11
REMARK    7  A    between atoms: C_11  and  C_13
REMARK    8  A    between atoms: C_14  and  C_15
REMARK    9  A    between atoms: C_18  and  O_19
REMARK   10  A    between atoms: C_20  and  O_21
REMARK   11  A    between atoms: O_21  and  C_22
REMARK   12  A    between atoms: C_26  and  O_27
REMARK                            x       y       z     vdW  Elec       q    Type
REMARK                         _______ _______ _______ _____ _____    ______ ____
ROOT
ATOM      1  C   UNL     1      -0.902   6.729   0.107  0.00  0.00    +0.000 C 
ENDROOT
BRANCH   1   2
ATOM      2  C   UNL     1       0.597   6.592   0.081  0.00  0.00    +0.000 C 
ATOM      3  O   UNL     1       1.192   6.013   0.989  0.00  0.00    +0.000 OA
BRANCH   2   5
ATOM      4  C   UNL     1       2.668   7.015  -1.176  0.00  0.00    +0.000 C 
ATOM      5  C   UNL     1       1.332   7.141  -1.097  0.00  0.00    +0.000 C 
BRANCH   4   8
ATOM      6  C   UNL     1       3.972   9.166  -4.027  0.00  0.00    +0.000 A 
ATOM      7  C   UNL     1       3.154   8.678  -2.999  0.00  0.00    +0.000 A 
ATOM      8  C   UNL     1       3.497   7.522  -2.282  0.00  0.00    +0.000 A 
ATOM      9  C   UNL     1       4.699   6.872  -2.590  0.00  0.00    +0.000 A 
ATOM     10  C   UNL     1       5.526   7.345  -3.614  0.00  0.00    +0.000 A 
ATOM     11  C   UNL     1       5.156   8.483  -4.327  0.00  0.00    +0.000 A 
BRANCH   6  13
ATOM     12  C   UNL     1       2.501  10.984  -4.472  0.00  0.00    +0.000 C 
ATOM     13  O   UNL     1       3.701  10.285  -4.771  0.00  0.00    +0.000 OA
ENDBRANCH   6  13
BRANCH  11  14
ATOM     14  O   UNL     1       5.961   8.948  -5.334  0.00  0.00    +0.000 OA
ATOM     15  H   UNL     1       6.724   8.356  -5.431  0.00  0.00    +0.000 HD
ENDBRANCH  11  14
ENDBRANCH   4   8
ENDBRANCH   2   5
ENDBRANCH   1   2
BRANCH   1  16
ATOM     16  C   UNL     1      -1.382   8.155   0.088  0.00  0.00    +0.000 C 
ATOM     17  O   UNL     1      -1.573   8.745  -0.975  0.00  0.00    +0.000 OA
BRANCH  16  18
ATOM     18  C   UNL     1      -1.582   8.833   1.401  0.00  0.00    +0.000 C 
ATOM     19  C   UNL     1      -2.025  10.100   1.440  0.00  0.00    +0.000 C 
BRANCH  19  20
ATOM     20  C   UNL     1      -2.233  10.872   2.674  0.00  0.00    +0.000 A 
ATOM     21  C   UNL     1      -2.068  12.260   2.643  0.00  0.00    +0.000 A 
ATOM     22  C   UNL     1      -2.272  13.028   3.794  0.00  0.00    +0.000 A 
ATOM     23  C   UNL     1      -2.658  12.415   4.989  0.00  0.00    +0.000 A 
ATOM     24  C   UNL     1      -2.848  11.031   5.040  0.00  0.00    +0.000 A 
ATOM     25  C   UNL     1      -2.640  10.276   3.877  0.00  0.00    +0.000 A 
BRANCH  23  26
ATOM     26  O   UNL     1      -2.847  13.206   6.088  0.00  0.00    +0.000 OA
ATOM     27  H   UNL     1      -2.668  14.129   5.853  0.00  0.00    +0.000 HD
ENDBRANCH  23  26
BRANCH  24  28
ATOM     28  O   UNL     1      -3.228  10.261   6.108  0.00  0.00    +0.000 OA
ATOM     29  C   UNL     1      -3.462  10.909   7.349  0.00  0.00    +0.000 C 
ENDBRANCH  24  28
ENDBRANCH  19  20
ENDBRANCH  16  18
ENDBRANCH   1  16
TORSDOF 10
