MODEL 1
REMARK VINA RESULT:    -7.821      0.000      0.000
REMARK INTER + INTRA:         -13.786
REMARK INTER:                 -11.937
REMARK INTRA:                  -1.849
REMARK UNBOUND:                -1.849
REMARK  Name = 
REMARK  12 active torsions:
REMARK  status: ('A' for Active; 'I' for Inactive)
REMARK    1  A    between atoms: C_1  and  O_2
REMARK    2  A    between atoms: O_2  and  C_3
REMARK    3  A    between atoms: C_5  and  C_6
REMARK    4  A    between atoms: C_7  and  C_8
REMARK    5  A    between atoms: C_8  and  C_10
REMARK    6  A    between atoms: C_10  and  C_11
REMARK    7  A    between atoms: C_11  and  C_13
REMARK    8  A    between atoms: C_14  and  C_15
REMARK    9  A    between atoms: C_18  and  O_19
REMARK   10  A    between atoms: C_20  and  O_21
REMARK   11  A    between atoms: O_21  and  C_22
REMARK   12  A    between atoms: C_26  and  O_27
REMARK                            x       y       z     vdW  Elec       q    Type
REMARK                         _______ _______ _______ _____ _____    ______ ____
ROOT
ATOM      1  C   UNL     1      21.202   0.434  54.149  0.00  0.00    +0.000 C 
ENDROOT
BRANCH   1   2
ATOM      2  C   UNL     1      21.100   0.825  52.698  0.00  0.00    +0.000 C 
ATOM      3  O   UNL     1      20.179   0.408  51.997  0.00  0.00    +0.000 OA
BRANCH   2   5
ATOM      4  C   UNL     1      23.245   1.285  51.586  0.00  0.00    +0.000 C 
ATOM      5  C   UNL     1      22.124   1.765  52.151  0.00  0.00    +0.000 C 
BRANCH   4   8
ATOM      6  C   UNL     1      25.098   4.008  49.686  0.00  0.00    +0.000 A 
ATOM      7  C   UNL     1      24.061   3.210  50.188  0.00  0.00    +0.000 A 
ATOM      8  C   UNL     1      24.324   2.113  51.022  0.00  0.00    +0.000 A 
ATOM      9  C   UNL     1      25.652   1.842  51.377  0.00  0.00    +0.000 A 
ATOM     10  C   UNL     1      26.698   2.627  50.884  0.00  0.00    +0.000 A 
ATOM     11  C   UNL     1      26.416   3.699  50.041  0.00  0.00    +0.000 A 
BRANCH   6  13
ATOM     12  C   UNL     1      23.597   5.339  48.404  0.00  0.00    +0.000 C 
ATOM     13  O   UNL     1      24.918   5.091  48.866  0.00  0.00    +0.000 OA
ENDBRANCH   6  13
BRANCH  11  14
ATOM     14  O   UNL     1      27.439   4.470  49.552  0.00  0.00    +0.000 OA
ATOM     15  H   UNL     1      27.116   4.985  48.795  0.00  0.00    +0.000 HD
ENDBRANCH  11  14
ENDBRANCH   4   8
ENDBRANCH   2   5
ENDBRANCH   1   2
BRANCH   1  16
ATOM     16  C   UNL     1      21.754  -0.948  54.368  0.00  0.00    +0.000 C 
ATOM     17  O   UNL     1      21.067  -1.831  54.881  0.00  0.00    +0.000 OA
BRANCH  16  18
ATOM     18  C   UNL     1      23.171  -1.195  53.973  0.00  0.00    +0.000 C 
ATOM     19  C   UNL     1      24.149  -0.417  54.464  0.00  0.00    +0.000 C 
BRANCH  19  20
ATOM     20  C   UNL     1      25.573  -0.554  54.124  0.00  0.00    +0.000 A 
ATOM     21  C   UNL     1      25.945  -1.427  53.098  0.00  0.00    +0.000 A 
ATOM     22  C   UNL     1      27.289  -1.572  52.737  0.00  0.00    +0.000 A 
ATOM     23  C   UNL     1      28.276  -0.832  53.393  0.00  0.00    +0.000 A 
ATOM     24  C   UNL     1      27.926   0.062  54.410  0.00  0.00    +0.000 A 
ATOM     25  C   UNL     1      26.575   0.195  54.758  0.00  0.00    +0.000 A 
BRANCH  23  26
ATOM     26  O   UNL     1      29.576  -1.005  53.006  0.00  0.00    +0.000 OA
ATOM     27  H   UNL     1      29.610  -1.637  52.272  0.00  0.00    +0.000 HD
ENDBRANCH  23  26
BRANCH  24  28
ATOM     28  O   UNL     1      28.746   0.870  55.154  0.00  0.00    +0.000 OA
ATOM     29  C   UNL     1      29.294   2.021  54.530  0.00  0.00    +0.000 C 
ENDBRANCH  24  28
ENDBRANCH  19  20
ENDBRANCH  16  18
ENDBRANCH   1  16
TORSDOF 10
ENDMDL
MODEL 2
REMARK VINA RESULT:    -7.732      0.167      5.524
REMARK INTER + INTRA:         -13.649
REMARK INTER:                 -12.045
REMARK INTRA:                  -1.604
REMARK UNBOUND:                -1.849
REMARK  Name = 
REMARK  12 active torsions:
REMARK  status: ('A' for Active; 'I' for Inactive)
REMARK    1  A    between atoms: C_1  and  O_2
REMARK    2  A    between atoms: O_2  and  C_3
REMARK    3  A    between atoms: C_5  and  C_6
REMARK    4  A    between atoms: C_7  and  C_8
REMARK    5  A    between atoms: C_8  and  C_10
REMARK    6  A    between atoms: C_10  and  C_11
REMARK    7  A    between atoms: C_11  and  C_13
REMARK    8  A    between atoms: C_14  and  C_15
REMARK    9  A    between atoms: C_18  and  O_19
REMARK   10  A    between atoms: C_20  and  O_21
REMARK   11  A    between atoms: O_21  and  C_22
REMARK   12  A    between atoms: C_26  and  O_27
REMARK                            x       y       z     vdW  Elec       q    Type
REMARK                         _______ _______ _______ _____ _____    ______ ____
ROOT
ATOM      1  C   UNL     1      21.185   0.444  54.149  0.00  0.00    +0.000 C 
ENDROOT
BRANCH   1   2
ATOM      2  C   UNL     1      21.805  -0.913  54.348  0.00  0.00    +0.000 C 
ATOM      3  O   UNL     1      21.151  -1.841  54.822  0.00  0.00    +0.000 OA
BRANCH   2   5
ATOM      4  C   UNL     1      24.202  -0.372  54.462  0.00  0.00    +0.000 C 
ATOM      5  C   UNL     1      23.220  -1.108  53.913  0.00  0.00    +0.000 C 
BRANCH   4   8
ATOM      6  C   UNL     1      27.967   0.152  54.438  0.00  0.00    +0.000 A 
ATOM      7  C   UNL     1      26.611   0.284  54.764  0.00  0.00    +0.000 A 
ATOM      8  C   UNL     1      25.627  -0.471  54.108  0.00  0.00    +0.000 A 
ATOM      9  C   UNL     1      26.027  -1.394  53.133  0.00  0.00    +0.000 A 
ATOM     10  C   UNL     1      27.377  -1.537  52.794  0.00  0.00    +0.000 A 
ATOM     11  C   UNL     1      28.335  -0.762  53.444  0.00  0.00    +0.000 A 
BRANCH   6  13
ATOM     12  C   UNL     1      29.316   2.114  54.461  0.00  0.00    +0.000 C 
ATOM     13  O   UNL     1      28.982   0.857  55.032  0.00  0.00    +0.000 OA
ENDBRANCH   6  13
BRANCH  11  14
ATOM     14  O   UNL     1      29.658  -0.895  53.112  0.00  0.00    +0.000 OA
ATOM     15  H   UNL     1      30.094  -0.031  53.187  0.00  0.00    +0.000 HD
ENDBRANCH  11  14
ENDBRANCH   4   8
ENDBRANCH   2   5
ENDBRANCH   1   2
BRANCH   1  16
ATOM     16  C   UNL     1      21.038   0.839  52.704  0.00  0.00    +0.000 C 
ATOM     17  O   UNL     1      20.131   0.379  52.011  0.00  0.00    +0.000 OA
BRANCH  16  18
ATOM     18  C   UNL     1      22.049   1.779  52.140  0.00  0.00    +0.000 C 
ATOM     19  C   UNL     1      23.224   1.308  51.691  0.00  0.00    +0.000 C 
BRANCH  19  20
ATOM     20  C   UNL     1      24.300   2.144  51.140  0.00  0.00    +0.000 A 
ATOM     21  C   UNL     1      25.622   1.884  51.515  0.00  0.00    +0.000 A 
ATOM     22  C   UNL     1      26.673   2.650  50.999  0.00  0.00    +0.000 A 
ATOM     23  C   UNL     1      26.413   3.677  50.088  0.00  0.00    +0.000 A 
ATOM     24  C   UNL     1      25.102   3.943  49.683  0.00  0.00    +0.000 A 
ATOM     25  C   UNL     1      24.060   3.166  50.209  0.00  0.00    +0.000 A 
BRANCH  23  26
ATOM     26  O   UNL     1      27.472   4.398  49.610  0.00  0.00    +0.000 OA
ATOM     27  H   UNL     1      28.265   4.179  50.121  0.00  0.00    +0.000 HD
ENDBRANCH  23  26
BRANCH  24  28
ATOM     28  O   UNL     1      24.657   4.895  48.803  0.00  0.00    +0.000 OA
ATOM     29  C   UNL     1      23.310   5.328  48.912  0.00  0.00    +0.000 C 
ENDBRANCH  24  28
ENDBRANCH  19  20
ENDBRANCH  16  18
ENDBRANCH   1  16
TORSDOF 10
ENDMDL
MODEL 3
REMARK VINA RESULT:    -7.678      1.860      5.657
REMARK INTER + INTRA:         -13.567
REMARK INTER:                 -11.580
REMARK INTRA:                  -1.987
REMARK UNBOUND:                -1.849
REMARK  Name = 
REMARK  12 active torsions:
REMARK  status: ('A' for Active; 'I' for Inactive)
REMARK    1  A    between atoms: C_1  and  O_2
REMARK    2  A    between atoms: O_2  and  C_3
REMARK    3  A    between atoms: C_5  and  C_6
REMARK    4  A    between atoms: C_7  and  C_8
REMARK    5  A    between atoms: C_8  and  C_10
REMARK    6  A    between atoms: C_10  and  C_11
REMARK    7  A    between atoms: C_11  and  C_13
REMARK    8  A    between atoms: C_14  and  C_15
REMARK    9  A    between atoms: C_18  and  O_19
REMARK   10  A    between atoms: C_20  and  O_21
REMARK   11  A    between atoms: O_21  and  C_22
REMARK   12  A    between atoms: C_26  and  O_27
REMARK                            x       y       z     vdW  Elec       q    Type
REMARK                         _______ _______ _______ _____ _____    ______ ____
ROOT
ATOM      1  C   UNL     1      27.772   0.260  52.918  0.00  0.00    +0.000 C 
ENDROOT
BRANCH   1   2
ATOM      2  C   UNL     1      27.720   1.724  52.571  0.00  0.00    +0.000 C 
ATOM      3  O   UNL     1      28.535   2.514  53.048  0.00  0.00    +0.000 OA
BRANCH   2   5
ATOM      4  C   UNL     1      25.517   2.685  52.051  0.00  0.00    +0.000 C 
ATOM      5  C   UNL     1      26.679   2.180  51.603  0.00  0.00    +0.000 C 
BRANCH   4   8
ATOM      6  C   UNL     1      22.225   4.193  50.891  0.00  0.00    +0.000 A 
ATOM      7  C   UNL     1      23.247   3.718  51.724  0.00  0.00    +0.000 A 
ATOM      8  C   UNL     1      24.418   3.157  51.192  0.00  0.00    +0.000 A 
ATOM      9  C   UNL     1      24.566   3.107  49.800  0.00  0.00    +0.000 A 
ATOM     10  C   UNL     1      23.555   3.575  48.955  0.00  0.00    +0.000 A 
ATOM     11  C   UNL     1      22.392   4.110  49.505  0.00  0.00    +0.000 A 
BRANCH   6  13
ATOM     12  C   UNL     1      20.039   3.857  51.774  0.00  0.00    +0.000 C 
ATOM     13  O   UNL     1      21.054   4.750  51.338  0.00  0.00    +0.000 OA
ENDBRANCH   6  13
BRANCH  11  14
ATOM     14  O   UNL     1      21.397   4.566  48.681  0.00  0.00    +0.000 OA
ATOM     15  H   UNL     1      21.788   5.115  47.982  0.00  0.00    +0.000 HD
ENDBRANCH  11  14
ENDBRANCH   4   8
ENDBRANCH   2   5
ENDBRANCH   1   2
BRANCH   1  16
ATOM     16  C   UNL     1      27.265  -0.055  54.299  0.00  0.00    +0.000 C 
ATOM     17  O   UNL     1      28.044  -0.290  55.222  0.00  0.00    +0.000 OA
BRANCH  16  18
ATOM     18  C   UNL     1      25.788  -0.108  54.496  0.00  0.00    +0.000 C 
ATOM     19  C   UNL     1      24.990  -0.482  53.483  0.00  0.00    +0.000 C 
BRANCH  19  20
ATOM     20  C   UNL     1      23.523  -0.544  53.558  0.00  0.00    +0.000 A 
ATOM     21  C   UNL     1      22.924  -1.127  54.679  0.00  0.00    +0.000 A 
ATOM     22  C   UNL     1      21.531  -1.190  54.791  0.00  0.00    +0.000 A 
ATOM     23  C   UNL     1      20.720  -0.657  53.785  0.00  0.00    +0.000 A 
ATOM     24  C   UNL     1      21.295  -0.052  52.664  0.00  0.00    +0.000 A 
ATOM     25  C   UNL     1      22.693   0.004  52.568  0.00  0.00    +0.000 A 
BRANCH  23  26
ATOM     26  O   UNL     1      19.364  -0.741  53.938  0.00  0.00    +0.000 OA
ATOM     27  H   UNL     1      19.061  -0.019  54.510  0.00  0.00    +0.000 HD
ENDBRANCH  23  26
BRANCH  24  28
ATOM     28  O   UNL     1      20.669   0.526  51.591  0.00  0.00    +0.000 OA
ATOM     29  C   UNL     1      21.380   0.604  50.365  0.00  0.00    +0.000 C 
ENDBRANCH  24  28
ENDBRANCH  19  20
ENDBRANCH  16  18
ENDBRANCH   1  16
TORSDOF 10
ENDMDL
MODEL 4
REMARK VINA RESULT:    -7.646      1.506      5.777
REMARK INTER + INTRA:         -13.517
REMARK INTER:                 -11.873
REMARK INTRA:                  -1.645
REMARK UNBOUND:                -1.849
REMARK  Name = 
REMARK  12 active torsions:
REMARK  status: ('A' for Active; 'I' for Inactive)
REMARK    1  A    between atoms: C_1  and  O_2
REMARK    2  A    between atoms: O_2  and  C_3
REMARK    3  A    between atoms: C_5  and  C_6
REMARK    4  A    between atoms: C_7  and  C_8
REMARK    5  A    between atoms: C_8  and  C_10
REMARK    6  A    between atoms: C_10  and  C_11
REMARK    7  A    between atoms: C_11  and  C_13
REMARK    8  A    between atoms: C_14  and  C_15
REMARK    9  A    between atoms: C_18  and  O_19
REMARK   10  A    between atoms: C_20  and  O_21
REMARK   11  A    between atoms: O_21  and  C_22
REMARK   12  A    between atoms: C_26  and  O_27
REMARK                            x       y       z     vdW  Elec       q    Type
REMARK                         _______ _______ _______ _____ _____    ______ ____
ROOT
ATOM      1  C   UNL     1      24.124   3.618  49.058  0.00  0.00    +0.000 C 
ENDROOT
BRANCH   1   2
ATOM      2  C   UNL     1      22.971   4.111  49.891  0.00  0.00    +0.000 C 
ATOM      3  O   UNL     1      22.395   5.161  49.610  0.00  0.00    +0.000 OA
BRANCH   2   5
ATOM      4  C   UNL     1      22.649   1.931  50.984  0.00  0.00    +0.000 C 
ATOM      5  C   UNL     1      22.523   3.268  51.040  0.00  0.00    +0.000 C 
BRANCH   4   8
ATOM      6  C   UNL     1      20.517  -0.232  53.270  0.00  0.00    +0.000 A 
ATOM      7  C   UNL     1      20.890   0.681  52.274  0.00  0.00    +0.000 A 
ATOM      8  C   UNL     1      22.237   1.001  52.048  0.00  0.00    +0.000 A 
ATOM      9  C   UNL     1      23.218   0.365  52.819  0.00  0.00    +0.000 A 
ATOM     10  C   UNL     1      22.862  -0.547  53.818  0.00  0.00    +0.000 A 
ATOM     11  C   UNL     1      21.518  -0.835  54.040  0.00  0.00    +0.000 A 
BRANCH   6  13
ATOM     12  C   UNL     1      18.320  -0.655  52.456  0.00  0.00    +0.000 C 
ATOM     13  O   UNL     1      19.224  -0.591  53.550  0.00  0.00    +0.000 OA
ENDBRANCH   6  13
BRANCH  11  14
ATOM     14  O   UNL     1      21.164  -1.726  55.020  0.00  0.00    +0.000 OA
ATOM     15  H   UNL     1      20.197  -1.739  55.105  0.00  0.00    +0.000 HD
ENDBRANCH  11  14
ENDBRANCH   4   8
ENDBRANCH   2   5
ENDBRANCH   1   2
BRANCH   1  16
ATOM     16  C   UNL     1      25.457   4.179  49.473  0.00  0.00    +0.000 C 
ATOM     17  O   UNL     1      25.978   5.102  48.847  0.00  0.00    +0.000 OA
BRANCH  16  18
ATOM     18  C   UNL     1      26.134   3.553  50.645  0.00  0.00    +0.000 C 
ATOM     19  C   UNL     1      26.233   2.217  50.727  0.00  0.00    +0.000 C 
BRANCH  19  20
ATOM     20  C   UNL     1      26.856   1.494  51.846  0.00  0.00    +0.000 A 
ATOM     21  C   UNL     1      27.588   2.213  52.795  0.00  0.00    +0.000 A 
ATOM     22  C   UNL     1      28.182   1.561  53.881  0.00  0.00    +0.000 A 
ATOM     23  C   UNL     1      28.037   0.180  54.036  0.00  0.00    +0.000 A 
ATOM     24  C   UNL     1      27.293  -0.558  53.111  0.00  0.00    +0.000 A 
ATOM     25  C   UNL     1      26.704   0.112  52.029  0.00  0.00    +0.000 A 
BRANCH  23  26
ATOM     26  O   UNL     1      28.633  -0.414  55.113  0.00  0.00    +0.000 OA
ATOM     27  H   UNL     1      28.480  -1.370  55.078  0.00  0.00    +0.000 HD
ENDBRANCH  23  26
BRANCH  24  28
ATOM     28  O   UNL     1      27.037  -1.904  53.101  0.00  0.00    +0.000 OA
ATOM     29  C   UNL     1      28.124  -2.789  52.875  0.00  0.00    +0.000 C 
ENDBRANCH  24  28
ENDBRANCH  19  20
ENDBRANCH  16  18
ENDBRANCH   1  16
TORSDOF 10
ENDMDL
MODEL 5
REMARK VINA RESULT:    -7.609      1.333      5.639
REMARK INTER + INTRA:         -13.462
REMARK INTER:                 -11.629
REMARK INTRA:                  -1.833
REMARK UNBOUND:                -1.849
REMARK  Name = 
REMARK  12 active torsions:
REMARK  status: ('A' for Active; 'I' for Inactive)
REMARK    1  A    between atoms: C_1  and  O_2
REMARK    2  A    between atoms: O_2  and  C_3
REMARK    3  A    between atoms: C_5  and  C_6
REMARK    4  A    between atoms: C_7  and  C_8
REMARK    5  A    between atoms: C_8  and  C_10
REMARK    6  A    between atoms: C_10  and  C_11
REMARK    7  A    between atoms: C_11  and  C_13
REMARK    8  A    between atoms: C_14  and  C_15
REMARK    9  A    between atoms: C_18  and  O_19
REMARK   10  A    between atoms: C_20  and  O_21
REMARK   11  A    between atoms: O_21  and  C_22
REMARK   12  A    between atoms: C_26  and  O_27
REMARK                            x       y       z     vdW  Elec       q    Type
REMARK                         _______ _______ _______ _____ _____    ______ ____
ROOT
ATOM      1  C   UNL     1      24.444   4.735  50.159  0.00  0.00    +0.000 C 
ENDROOT
BRANCH   1   2
ATOM      2  C   UNL     1      23.332   3.812  49.736  0.00  0.00    +0.000 C 
ATOM      3  O   UNL     1      23.009   3.716  48.553  0.00  0.00    +0.000 OA
BRANCH   2   5
ATOM      4  C   UNL     1      23.069   1.728  51.015  0.00  0.00    +0.000 C 
ATOM      5  C   UNL     1      22.664   2.989  50.788  0.00  0.00    +0.000 C 
BRANCH   4   8
ATOM      6  C   UNL     1      22.659  -0.552  54.030  0.00  0.00    +0.000 A 
ATOM      7  C   UNL     1      23.241   0.281  53.065  0.00  0.00    +0.000 A 
ATOM      8  C   UNL     1      22.482   0.823  52.017  0.00  0.00    +0.000 A 
ATOM      9  C   UNL     1      21.110   0.542  51.965  0.00  0.00    +0.000 A 
ATOM     10  C   UNL     1      20.514  -0.289  52.920  0.00  0.00    +0.000 A 
ATOM     11  C   UNL     1      21.291  -0.833  53.940  0.00  0.00    +0.000 A 
BRANCH   6  13
ATOM     12  C   UNL     1      24.752  -1.009  55.066  0.00  0.00    +0.000 C 
ATOM     13  O   UNL     1      23.336  -1.119  55.078  0.00  0.00    +0.000 OA
ENDBRANCH   6  13
BRANCH  11  14
ATOM     14  O   UNL     1      20.712  -1.651  54.875  0.00  0.00    +0.000 OA
ATOM     15  H   UNL     1      19.754  -1.492  54.888  0.00  0.00    +0.000 HD
ENDBRANCH  11  14
ENDBRANCH   4   8
ENDBRANCH   2   5
ENDBRANCH   1   2
BRANCH   1  16
ATOM     16  C   UNL     1      25.799   4.327  49.647  0.00  0.00    +0.000 C 
ATOM     17  O   UNL     1      26.397   5.017  48.822  0.00  0.00    +0.000 OA
BRANCH  16  18
ATOM     18  C   UNL     1      26.369   3.044  50.148  0.00  0.00    +0.000 C 
ATOM     19  C   UNL     1      26.370   2.781  51.465  0.00  0.00    +0.000 C 
BRANCH  19  20
ATOM     20  C   UNL     1      26.928   1.562  52.070  0.00  0.00    +0.000 A 
ATOM     21  C   UNL     1      26.449   0.317  51.653  0.00  0.00    +0.000 A 
ATOM     22  C   UNL     1      26.967  -0.864  52.197  0.00  0.00    +0.000 A 
ATOM     23  C   UNL     1      27.982  -0.811  53.156  0.00  0.00    +0.000 A 
ATOM     24  C   UNL     1      28.490   0.423  53.574  0.00  0.00    +0.000 A 
ATOM     25  C   UNL     1      27.960   1.596  53.019  0.00  0.00    +0.000 A 
BRANCH  23  26
ATOM     26  O   UNL     1      28.457  -1.990  53.657  0.00  0.00    +0.000 OA
ATOM     27  H   UNL     1      27.919  -2.722  53.320  0.00  0.00    +0.000 HD
ENDBRANCH  23  26
BRANCH  24  28
ATOM     28  O   UNL     1      29.479   0.671  54.490  0.00  0.00    +0.000 OA
ATOM     29  C   UNL     1      29.757   2.023  54.822  0.00  0.00    +0.000 C 
ENDBRANCH  24  28
ENDBRANCH  19  20
ENDBRANCH  16  18
ENDBRANCH   1  16
TORSDOF 10
ENDMDL
MODEL 6
REMARK VINA RESULT:    -7.598      1.960      6.006
REMARK INTER + INTRA:         -13.444
REMARK INTER:                 -11.846
REMARK INTRA:                  -1.598
REMARK UNBOUND:                -1.849
REMARK  Name = 
REMARK  12 active torsions:
REMARK  status: ('A' for Active; 'I' for Inactive)
REMARK    1  A    between atoms: C_1  and  O_2
REMARK    2  A    between atoms: O_2  and  C_3
REMARK    3  A    between atoms: C_5  and  C_6
REMARK    4  A    between atoms: C_7  and  C_8
REMARK    5  A    between atoms: C_8  and  C_10
REMARK    6  A    between atoms: C_10  and  C_11
REMARK    7  A    between atoms: C_11  and  C_13
REMARK    8  A    between atoms: C_14  and  C_15
REMARK    9  A    between atoms: C_18  and  O_19
REMARK   10  A    between atoms: C_20  and  O_21
REMARK   11  A    between atoms: O_21  and  C_22
REMARK   12  A    between atoms: C_26  and  O_27
REMARK                            x       y       z     vdW  Elec       q    Type
REMARK                         _______ _______ _______ _____ _____    ______ ____
ROOT
ATOM      1  C   UNL     1      20.530   0.974  49.911  0.00  0.00    +0.000 C 
ENDROOT
BRANCH   1   2
ATOM      2  C   UNL     1      20.817   1.296  51.354  0.00  0.00    +0.000 C 
ATOM      3  O   UNL     1      20.043   1.992  52.010  0.00  0.00    +0.000 OA
BRANCH   2   5
ATOM      4  C   UNL     1      22.991   1.517  52.482  0.00  0.00    +0.000 C 
ATOM      5  C   UNL     1      22.043   0.711  51.973  0.00  0.00    +0.000 C 
BRANCH   4   8
ATOM      6  C   UNL     1      26.472   1.480  54.009  0.00  0.00    +0.000 A 
ATOM      7  C   UNL     1      25.302   1.930  53.383  0.00  0.00    +0.000 A 
ATOM      8  C   UNL     1      24.241   1.055  53.108  0.00  0.00    +0.000 A 
ATOM      9  C   UNL     1      24.355  -0.285  53.501  0.00  0.00    +0.000 A 
ATOM     10  C   UNL     1      25.516  -0.750  54.126  0.00  0.00    +0.000 A 
ATOM     11  C   UNL     1      26.566   0.132  54.371  0.00  0.00    +0.000 A 
BRANCH   6  13
ATOM     12  C   UNL     1      28.542   2.420  53.301  0.00  0.00    +0.000 C 
ATOM     13  O   UNL     1      27.549   2.275  54.307  0.00  0.00    +0.000 OA
ENDBRANCH   6  13
BRANCH  11  14
ATOM     14  O   UNL     1      27.708  -0.320  54.980  0.00  0.00    +0.000 OA
ATOM     15  H   UNL     1      28.351   0.405  55.031  0.00  0.00    +0.000 HD
ENDBRANCH  11  14
ENDBRANCH   4   8
ENDBRANCH   2   5
ENDBRANCH   1   2
BRANCH   1  16
ATOM     16  C   UNL     1      21.007   2.027  48.948  0.00  0.00    +0.000 C 
ATOM     17  O   UNL     1      20.223   2.589  48.183  0.00  0.00    +0.000 OA
BRANCH  16  18
ATOM     18  C   UNL     1      22.466   2.336  48.931  0.00  0.00    +0.000 C 
ATOM     19  C   UNL     1      22.898   3.551  49.307  0.00  0.00    +0.000 C 
BRANCH  19  20
ATOM     20  C   UNL     1      24.307   3.971  49.305  0.00  0.00    +0.000 A 
ATOM     21  C   UNL     1      25.294   3.041  49.646  0.00  0.00    +0.000 A 
ATOM     22  C   UNL     1      26.645   3.402  49.641  0.00  0.00    +0.000 A 
ATOM     23  C   UNL     1      27.026   4.697  49.279  0.00  0.00    +0.000 A 
ATOM     24  C   UNL     1      26.059   5.638  48.915  0.00  0.00    +0.000 A 
ATOM     25  C   UNL     1      24.709   5.260  48.925  0.00  0.00    +0.000 A 
BRANCH  23  26
ATOM     26  O   UNL     1      28.358   5.003  49.287  0.00  0.00    +0.000 OA
ATOM     27  H   UNL     1      28.581   5.444  50.121  0.00  0.00    +0.000 HD
ENDBRANCH  23  26
BRANCH  24  28
ATOM     28  O   UNL     1      26.240   6.940  48.528  0.00  0.00    +0.000 OA
ATOM     29  C   UNL     1      26.219   7.944  49.532  0.00  0.00    +0.000 C 
ENDBRANCH  24  28
ENDBRANCH  19  20
ENDBRANCH  16  18
ENDBRANCH   1  16
TORSDOF 10
ENDMDL
MODEL 7
REMARK VINA RESULT:    -7.593      1.500      6.592
REMARK INTER + INTRA:         -13.436
REMARK INTER:                 -11.812
REMARK INTRA:                  -1.625
REMARK UNBOUND:                -1.849
REMARK  Name = 
REMARK  12 active torsions:
REMARK  status: ('A' for Active; 'I' for Inactive)
REMARK    1  A    between atoms: C_1  and  O_2
REMARK    2  A    between atoms: O_2  and  C_3
REMARK    3  A    between atoms: C_5  and  C_6
REMARK    4  A    between atoms: C_7  and  C_8
REMARK    5  A    between atoms: C_8  and  C_10
REMARK    6  A    between atoms: C_10  and  C_11
REMARK    7  A    between atoms: C_11  and  C_13
REMARK    8  A    between atoms: C_14  and  C_15
REMARK    9  A    between atoms: C_18  and  O_19
REMARK   10  A    between atoms: C_20  and  O_21
REMARK   11  A    between atoms: O_21  and  C_22
REMARK   12  A    between atoms: C_26  and  O_27
REMARK                            x       y       z     vdW  Elec       q    Type
REMARK                         _______ _______ _______ _____ _____    ______ ____
ROOT
ATOM      1  C   UNL     1      24.165   3.334  48.983  0.00  0.00    +0.000 C 
ENDROOT
BRANCH   1   2
ATOM      2  C   UNL     1      25.372   4.007  49.579  0.00  0.00    +0.000 C 
ATOM      3  O   UNL     1      25.526   5.224  49.484  0.00  0.00    +0.000 OA
BRANCH   2   5
ATOM      4  C   UNL     1      26.005   2.603  51.497  0.00  0.00    +0.000 C 
ATOM      5  C   UNL     1      26.352   3.161  50.324  0.00  0.00    +0.000 C 
BRANCH   4   8
ATOM      6  C   UNL     1      27.580  -0.421  53.178  0.00  0.00    +0.000 A 
ATOM      7  C   UNL     1      26.711   0.371  52.416  0.00  0.00    +0.000 A 
ATOM      8  C   UNL     1      26.887   1.760  52.320  0.00  0.00    +0.000 A 
ATOM      9  C   UNL     1      27.974   2.347  52.980  0.00  0.00    +0.000 A 
ATOM     10  C   UNL     1      28.850   1.570  53.745  0.00  0.00    +0.000 A 
ATOM     11  C   UNL     1      28.645   0.196  53.843  0.00  0.00    +0.000 A 
BRANCH   6  13
ATOM     12  C   UNL     1      26.861  -2.493  52.252  0.00  0.00    +0.000 C 
ATOM     13  O   UNL     1      27.470  -1.780  53.319  0.00  0.00    +0.000 OA
ENDBRANCH   6  13
BRANCH  11  14
ATOM     14  O   UNL     1      29.498  -0.569  54.595  0.00  0.00    +0.000 OA
ATOM     15  H   UNL     1      30.311  -0.066  54.765  0.00  0.00    +0.000 HD
ENDBRANCH  11  14
ENDBRANCH   4   8
ENDBRANCH   2   5
ENDBRANCH   1   2
BRANCH   1  16
ATOM     16  C   UNL     1      22.870   3.701  49.658  0.00  0.00    +0.000 C 
ATOM     17  O   UNL     1      22.193   4.647  49.257  0.00  0.00    +0.000 OA
BRANCH  16  18
ATOM     18  C   UNL     1      22.460   2.899  50.846  0.00  0.00    +0.000 C 
ATOM     19  C   UNL     1      22.577   1.561  50.824  0.00  0.00    +0.000 C 
BRANCH  19  20
ATOM     20  C   UNL     1      22.181   0.672  51.926  0.00  0.00    +0.000 A 
ATOM     21  C   UNL     1      23.162   0.199  52.803  0.00  0.00    +0.000 A 
ATOM     22  C   UNL     1      22.820  -0.636  53.872  0.00  0.00    +0.000 A 
ATOM     23  C   UNL     1      21.486  -0.997  54.083  0.00  0.00    +0.000 A 
ATOM     24  C   UNL     1      20.485  -0.521  53.231  0.00  0.00    +0.000 A 
ATOM     25  C   UNL     1      20.845   0.316  52.165  0.00  0.00    +0.000 A 
BRANCH  23  26
ATOM     26  O   UNL     1      21.199  -1.814  55.140  0.00  0.00    +0.000 OA
ATOM     27  H   UNL     1      21.478  -1.384  55.963  0.00  0.00    +0.000 HD
ENDBRANCH  23  26
BRANCH  24  28
ATOM     28  O   UNL     1      19.137  -0.758  53.283  0.00  0.00    +0.000 OA
ATOM     29  C   UNL     1      18.341  -0.331  52.188  0.00  0.00    +0.000 C 
ENDBRANCH  24  28
ENDBRANCH  19  20
ENDBRANCH  16  18
ENDBRANCH   1  16
TORSDOF 10
ENDMDL
MODEL 8
REMARK VINA RESULT:    -7.524      1.921      7.179
REMARK INTER + INTRA:         -13.332
REMARK INTER:                 -11.370
REMARK INTRA:                  -1.963
REMARK UNBOUND:                -1.849
REMARK  Name = 
REMARK  12 active torsions:
REMARK  status: ('A' for Active; 'I' for Inactive)
REMARK    1  A    between atoms: C_1  and  O_2
REMARK    2  A    between atoms: O_2  and  C_3
REMARK    3  A    between atoms: C_5  and  C_6
REMARK    4  A    between atoms: C_7  and  C_8
REMARK    5  A    between atoms: C_8  and  C_10
REMARK    6  A    between atoms: C_10  and  C_11
REMARK    7  A    between atoms: C_11  and  C_13
REMARK    8  A    between atoms: C_14  and  C_15
REMARK    9  A    between atoms: C_18  and  O_19
REMARK   10  A    between atoms: C_20  and  O_21
REMARK   11  A    between atoms: O_21  and  C_22
REMARK   12  A    between atoms: C_26  and  O_27
REMARK                            x       y       z     vdW  Elec       q    Type
REMARK                         _______ _______ _______ _____ _____    ______ ____
ROOT
ATOM      1  C   UNL     1      27.455   0.144  52.852  0.00  0.00    +0.000 C 
ENDROOT
BRANCH   1   2
ATOM      2  C   UNL     1      26.944  -0.118  54.244  0.00  0.00    +0.000 C 
ATOM      3  O   UNL     1      27.724  -0.278  55.181  0.00  0.00    +0.000 OA
BRANCH   2   5
ATOM      4  C   UNL     1      24.647  -0.522  53.465  0.00  0.00    +0.000 C 
ATOM      5  C   UNL     1      25.466  -0.136  54.457  0.00  0.00    +0.000 C 
BRANCH   4   8
ATOM      6  C   UNL     1      20.956   0.047  52.749  0.00  0.00    +0.000 A 
ATOM      7  C   UNL     1      22.353   0.132  52.668  0.00  0.00    +0.000 A 
ATOM      8  C   UNL     1      23.178  -0.572  53.557  0.00  0.00    +0.000 A 
ATOM      9  C   UNL     1      22.581  -1.396  54.519  0.00  0.00    +0.000 A 
ATOM     10  C   UNL     1      21.188  -1.491  54.614  0.00  0.00    +0.000 A 
ATOM     11  C   UNL     1      20.388  -0.767  53.734  0.00  0.00    +0.000 A 
BRANCH   6  13
ATOM     12  C   UNL     1      19.879   2.089  52.170  0.00  0.00    +0.000 C 
ATOM     13  O   UNL     1      20.088   0.707  51.918  0.00  0.00    +0.000 OA
ENDBRANCH   6  13
BRANCH  11  14
ATOM     14  O   UNL     1      19.023  -0.854  53.826  0.00  0.00    +0.000 OA
ATOM     15  H   UNL     1      18.638  -0.769  52.939  0.00  0.00    +0.000 HD
ENDBRANCH  11  14
ENDBRANCH   4   8
ENDBRANCH   2   5
ENDBRANCH   1   2
BRANCH   1  16
ATOM     16  C   UNL     1      27.536   1.605  52.500  0.00  0.00    +0.000 C 
ATOM     17  O   UNL     1      28.462   2.305  52.911  0.00  0.00    +0.000 OA
BRANCH  16  18
ATOM     18  C   UNL     1      26.438   2.176  51.669  0.00  0.00    +0.000 C 
ATOM     19  C   UNL     1      25.350   2.695  52.260  0.00  0.00    +0.000 C 
BRANCH  19  20
ATOM     20  C   UNL     1      24.200   3.260  51.540  0.00  0.00    +0.000 A 
ATOM     21  C   UNL     1      23.556   4.385  52.063  0.00  0.00    +0.000 A 
ATOM     22  C   UNL     1      22.468   4.958  51.397  0.00  0.00    +0.000 A 
ATOM     23  C   UNL     1      22.019   4.418  50.189  0.00  0.00    +0.000 A 
ATOM     24  C   UNL     1      22.659   3.305  49.636  0.00  0.00    +0.000 A 
ATOM     25  C   UNL     1      23.749   2.743  50.316  0.00  0.00    +0.000 A 
BRANCH  23  26
ATOM     26  O   UNL     1      20.953   5.012  49.573  0.00  0.00    +0.000 OA
ATOM     27  H   UNL     1      20.778   4.564  48.732  0.00  0.00    +0.000 HD
ENDBRANCH  23  26
BRANCH  24  28
ATOM     28  O   UNL     1      22.369   2.646  48.470  0.00  0.00    +0.000 OA
ATOM     29  C   UNL     1      21.587   1.464  48.546  0.00  0.00    +0.000 C 
ENDBRANCH  24  28
ENDBRANCH  19  20
ENDBRANCH  16  18
ENDBRANCH   1  16
TORSDOF 10
ENDMDL
MODEL 9
REMARK VINA RESULT:    -7.510      1.590      5.945
REMARK INTER + INTRA:         -13.310
REMARK INTER:                 -11.526
REMARK INTRA:                  -1.785
REMARK UNBOUND:                -1.849
REMARK  Name = 
REMARK  12 active torsions:
REMARK  status: ('A' for Active; 'I' for Inactive)
REMARK    1  A    between atoms: C_1  and  O_2
REMARK    2  A    between atoms: O_2  and  C_3
REMARK    3  A    between atoms: C_5  and  C_6
REMARK    4  A    between atoms: C_7  and  C_8
REMARK    5  A    between atoms: C_8  and  C_10
REMARK    6  A    between atoms: C_10  and  C_11
REMARK    7  A    between atoms: C_11  and  C_13
REMARK    8  A    between atoms: C_14  and  C_15
REMARK    9  A    between atoms: C_18  and  O_19
REMARK   10  A    between atoms: C_20  and  O_21
REMARK   11  A    between atoms: O_21  and  C_22
REMARK   12  A    between atoms: C_26  and  O_27
REMARK                            x       y       z     vdW  Elec       q    Type
REMARK                         _______ _______ _______ _____ _____    ______ ____
ROOT
ATOM      1  C   UNL     1      21.635   0.445  51.951  0.00  0.00    +0.000 C 
ENDROOT
BRANCH   1   2
ATOM      2  C   UNL     1      22.237  -0.347  53.082  0.00  0.00    +0.000 C 
ATOM      3  O   UNL     1      21.664  -1.339  53.530  0.00  0.00    +0.000 OA
BRANCH   2   5
ATOM      4  C   UNL     1      24.637   0.109  52.799  0.00  0.00    +0.000 C 
ATOM      5  C   UNL     1      23.565   0.083  53.610  0.00  0.00    +0.000 C 
BRANCH   4   8
ATOM      6  C   UNL     1      28.254  -0.043  53.959  0.00  0.00    +0.000 A 
ATOM      7  C   UNL     1      26.957  -0.435  53.603  0.00  0.00    +0.000 A 
ATOM      8  C   UNL     1      25.994   0.506  53.209  0.00  0.00    +0.000 A 
ATOM      9  C   UNL     1      26.361   1.856  53.146  0.00  0.00    +0.000 A 
ATOM     10  C   UNL     1      27.651   2.264  53.499  0.00  0.00    +0.000 A 
ATOM     11  C   UNL     1      28.586   1.315  53.906  0.00  0.00    +0.000 A 
BRANCH   6  13
ATOM     12  C   UNL     1      29.656  -1.890  53.419  0.00  0.00    +0.000 C 
ATOM     13  O   UNL     1      29.245  -0.904  54.355  0.00  0.00    +0.000 OA
ENDBRANCH   6  13
BRANCH  11  14
ATOM     14  O   UNL     1      29.850   1.711  54.257  0.00  0.00    +0.000 OA
ATOM     15  H   UNL     1      30.490   1.308  53.649  0.00  0.00    +0.000 HD
ENDBRANCH  11  14
ENDBRANCH   4   8
ENDBRANCH   2   5
ENDBRANCH   1   2
BRANCH   1  16
ATOM     16  C   UNL     1      21.369   1.886  52.294  0.00  0.00    +0.000 C 
ATOM     17  O   UNL     1      20.306   2.229  52.811  0.00  0.00    +0.000 OA
BRANCH  16  18
ATOM     18  C   UNL     1      22.423   2.883  51.950  0.00  0.00    +0.000 C 
ATOM     19  C   UNL     1      23.189   2.699  50.863  0.00  0.00    +0.000 C 
BRANCH  19  20
ATOM     20  C   UNL     1      24.272   3.602  50.445  0.00  0.00    +0.000 A 
ATOM     21  C   UNL     1      25.425   3.059  49.870  0.00  0.00    +0.000 A 
ATOM     22  C   UNL     1      26.469   3.888  49.447  0.00  0.00    +0.000 A 
ATOM     23  C   UNL     1      26.365   5.275  49.583  0.00  0.00    +0.000 A 
ATOM     24  C   UNL     1      25.214   5.843  50.138  0.00  0.00    +0.000 A 
ATOM     25  C   UNL     1      24.176   4.997  50.555  0.00  0.00    +0.000 A 
BRANCH  23  26
ATOM     26  O   UNL     1      27.410   6.046  49.155  0.00  0.00    +0.000 OA
ATOM     27  H   UNL     1      28.210   5.799  49.642  0.00  0.00    +0.000 HD
ENDBRANCH  23  26
BRANCH  24  28
ATOM     28  O   UNL     1      24.930   7.167  50.343  0.00  0.00    +0.000 OA
ATOM     29  C   UNL     1      23.616   7.513  50.752  0.00  0.00    +0.000 C 
ENDBRANCH  24  28
ENDBRANCH  19  20
ENDBRANCH  16  18
ENDBRANCH   1  16
TORSDOF 10
ENDMDL
