REMARK  Name = 
REMARK  13 active torsions:
REMARK  status: ('A' for Active; 'I' for Inactive)
REMARK    1  A    between atoms: C_1  and  C_2
REMARK    2  A    between atoms: C_3  and  O_39
REMARK    3  A    between atoms: C_4  and  N_38
REMARK    4  A    between atoms: C_6  and  O_8
REMARK    5  A    between atoms: O_8  and  C_9
REMARK    6  A    between atoms: C_11  and  C_33
REMARK    7  A    between atoms: C_11  and  O_37
REMARK    8  A    between atoms: C_15  and  O_32
REMARK    9  A    between atoms: C_18  and  O_19
REMARK   10  A    between atoms: C_26  and  O_30
REMARK   11  A    between atoms: O_30  and  C_31
REMARK   12  A    between atoms: C_33  and  C_35
REMARK   13  A    between atoms: C_35  and  O_36
REMARK                            x       y       z     vdW  Elec       q    Type
REMARK                         _______ _______ _______ _____ _____    ______ ____
ROOT
ATOM      1  C   UNL     1       2.637  -3.334  -3.410  0.00  0.00    +0.000 C 
ATOM      2  C   UNL     1       3.369  -2.704  -4.598  0.00  0.00    +0.000 C 
ATOM      3  C   UNL     1       2.556  -2.669  -5.891  0.00  0.00    +0.000 C 
ATOM      4  C   UNL     1       1.138  -2.123  -5.655  0.00  0.00    +0.000 C 
ATOM      5  C   UNL     1       0.409  -2.783  -4.504  0.00  0.00    +0.000 A 
ATOM      6  C   UNL     1       1.120  -3.370  -3.449  0.00  0.00    +0.000 A 
ATOM      7  C   UNL     1       0.401  -3.977  -2.392  0.00  0.00    +0.000 A 
ATOM      8  C   UNL     1      -1.004  -3.947  -2.325  0.00  0.00    +0.000 A 
ATOM      9  C   UNL     1      -1.700  -3.328  -3.360  0.00  0.00    +0.000 A 
ATOM     10  C   UNL     1      -0.994  -2.755  -4.441  0.00  0.00    +0.000 A 
ATOM     11  C   UNL     1      -3.170  -3.268  -3.321  0.00  0.00    +0.000 C 
ATOM     12  O   UNL     1      -3.774  -2.689  -4.223  0.00  0.00    +0.000 OA
ATOM     13  C   UNL     1      -3.916  -3.898  -2.215  0.00  0.00    +0.000 A 
ATOM     14  C   UNL     1      -3.242  -4.516  -1.161  0.00  0.00    +0.000 A 
ATOM     15  C   UNL     1      -1.749  -4.476  -1.144  0.00  0.00    +0.000 C 
ATOM     16  O   UNL     1      -1.138  -4.816  -0.142  0.00  0.00    +0.000 OA
ATOM     17  C   UNL     1      -3.990  -5.122  -0.124  0.00  0.00    +0.000 A 
ATOM     18  C   UNL     1      -5.391  -5.076  -0.168  0.00  0.00    +0.000 A 
ATOM     19  C   UNL     1      -6.053  -4.448  -1.222  0.00  0.00    +0.000 A 
ATOM     20  C   UNL     1      -5.317  -3.864  -2.246  0.00  0.00    +0.000 A 
ENDROOT
BRANCH  10  21
ATOM     21  O   UNL     1      -1.641  -2.122  -5.474  0.00  0.00    +0.000 OA
ATOM     22  H   UNL     1      -2.610  -2.142  -5.297  0.00  0.00    +0.000 HD
ENDBRANCH  10  21
BRANCH  17  23
ATOM     23  O   UNL     1      -3.302  -5.748   0.879  0.00  0.00    +0.000 OA
ATOM     24  C   UNL     1      -4.016  -6.318   1.965  0.00  0.00    +0.000 C 
ENDBRANCH  17  23
BRANCH   7  25
ATOM     25  O   UNL     1       1.117  -4.621  -1.417  0.00  0.00    +0.000 OA
ATOM     26  H   UNL     1       1.952  -4.137  -1.265  0.00  0.00    +0.000 HD
ENDBRANCH   7  25
BRANCH   3  27
ATOM     27  C   UNL     1       3.252  -1.712  -6.887  0.00  0.00    +0.000 C 
ATOM     28  O   UNL     1       3.901  -0.726  -6.515  0.00  0.00    +0.000 OA
BRANCH  27  29
ATOM     29  C   UNL     1       3.020  -1.941  -8.376  0.00  0.00    +0.000 C 
BRANCH  29  30
ATOM     30  O   UNL     1       3.773  -1.026  -9.166  0.00  0.00    +0.000 OA
ATOM     31  H   UNL     1       3.984  -0.267  -8.586  0.00  0.00    +0.000 HD
ENDBRANCH  29  30
ENDBRANCH  27  29
ENDBRANCH   3  27
BRANCH   3  32
ATOM     32  O   UNL     1       2.509  -3.985  -6.442  0.00  0.00    +0.000 OA
ATOM     33  H   UNL     1       1.879  -4.523  -5.928  0.00  0.00    +0.000 HD
ENDBRANCH   3  32
BRANCH   1  34
ATOM     34  O   UNL     1       3.097  -2.829  -2.137  0.00  0.00    +0.000 OA
BRANCH  34  40
ATOM     35  C   UNL     1       2.018   1.307  -2.817  0.00  0.00    +0.000 C 
ATOM     36  C   UNL     1       1.366   0.394  -1.781  0.00  0.00    +0.000 C 
ATOM     37  C   UNL     1       1.763   0.708  -0.332  0.00  0.00    +0.000 C 
ATOM     38  C   UNL     1       3.233   0.313  -0.076  0.00  0.00    +0.000 C 
ATOM     39  C   UNL     1       3.486  -1.137  -0.497  0.00  0.00    +0.000 C 
ATOM     40  C   UNL     1       2.971  -1.412  -1.911  0.00  0.00    +0.000 C 
ATOM     41  O   UNL     1       1.617  -0.992  -2.052  0.00  0.00    +0.000 OA
BRANCH  38  42
ATOM     42  N   UNL     1       3.599   0.473   1.341  0.00  0.00    +0.000 NA
ATOM     43  H   UNL     1       2.915  -0.055   1.894  0.00  0.00    +0.000 HD
ATOM     44  H   UNL     1       3.439   1.441   1.622  0.00  0.00    +0.000 HD
ENDBRANCH  38  42
BRANCH  37  45
ATOM     45  O   UNL     1       0.913  -0.041   0.556  0.00  0.00    +0.000 OA
ATOM     46  H   UNL     1       0.813  -0.934   0.176  0.00  0.00    +0.000 HD
ENDBRANCH  37  45
ENDBRANCH  34  40
ENDBRANCH   1  34
TORSDOF 11
