REMARK  Name = 
REMARK  12 active torsions:
REMARK  status: ('A' for Active; 'I' for Inactive)
REMARK    1  A    between atoms: C_1  and  O_2
REMARK    2  A    between atoms: O_2  and  C_3
REMARK    3  A    between atoms: C_3  and  C_4
REMARK    4  A    between atoms: C_4  and  O_5
REMARK    5  A    between atoms: O_5  and  C_6
REMARK    6  A    between atoms: N_13  and  C_14
REMARK    7  A    between atoms: C_18  and  C_19
REMARK    8  A    between atoms: C_24  and  O_25
REMARK    9  A    between atoms: O_25  and  C_26
REMARK   10  A    between atoms: C_26  and  C_27
REMARK   11  A    between atoms: C_27  and  O_28
REMARK   12  A    between atoms: O_28  and  C_29
REMARK                            x       y       z     vdW  Elec       q    Type
REMARK                         _______ _______ _______ _____ _____    ______ ____
ROOT
ATOM      1  C   UNL     1       6.038  -2.426  -1.438  0.00  0.00    +0.000 A 
ATOM      2  C   UNL     1       6.637  -2.822  -2.649  0.00  0.00    +0.000 A 
ATOM      3  C   UNL     1       8.011  -3.007  -2.801  0.00  0.00    +0.000 A 
ATOM      4  N   UNL     1       8.481  -3.423  -3.983  0.00  0.00    +0.000 NA
ATOM      5  C   UNL     1       9.805  -3.598  -4.071  0.00  0.00    +0.000 A 
ATOM      6  N   UNL     1      10.694  -3.402  -3.095  0.00  0.00    +0.000 NA
ATOM      7  C   UNL     1      10.225  -2.976  -1.909  0.00  0.00    +0.000 A 
ATOM      8  N   UNL     1      11.134  -2.763  -0.829  0.00  0.00    +0.000 N 
ATOM      9  C   UNL     1       8.845  -2.749  -1.709  0.00  0.00    +0.000 A 
ATOM     10  C   UNL     1       8.261  -2.318  -0.497  0.00  0.00    +0.000 A 
ATOM     11  C   UNL     1       6.870  -2.248  -0.328  0.00  0.00    +0.000 A 
ATOM     12  H   UNL     1      10.775  -3.219   0.003  0.00  0.00    +0.000 HD
ENDROOT
BRANCH   8  13
ATOM     13  C   UNL     1      12.550  -2.810  -0.858  0.00  0.00    +0.000 A 
ATOM     14  C   UNL     1      13.287  -2.537  -2.017  0.00  0.00    +0.000 A 
ATOM     15  C   UNL     1      14.679  -2.607  -2.029  0.00  0.00    +0.000 A 
ATOM     16  C   UNL     1      15.368  -2.906  -0.854  0.00  0.00    +0.000 A 
ATOM     17  C   UNL     1      14.663  -3.104   0.332  0.00  0.00    +0.000 A 
ATOM     18  C   UNL     1      13.263  -3.040   0.333  0.00  0.00    +0.000 A 
BRANCH  17  19
ATOM     19  C   UNL     1      15.374  -3.379   1.542  0.00  0.00    +0.000 C 
ATOM     20  C   UNL     1      15.994  -3.612   2.552  0.00  0.00    +0.000 C 
ENDBRANCH  17  19
ENDBRANCH   8  13
BRANCH   1  21
ATOM     21  O   UNL     1       4.673  -2.282  -1.545  0.00  0.00    +0.000 OA
BRANCH  21  22
ATOM     22  C   UNL     1       4.031  -1.374  -0.656  0.00  0.00    +0.000 C 
BRANCH  22  23
ATOM     23  C   UNL     1       2.705  -0.838  -1.183  0.00  0.00    +0.000 C 
BRANCH  23  25
ATOM     24  C   UNL     1       0.960   0.619  -0.476  0.00  0.00    +0.000 C 
ATOM     25  O   UNL     1       2.215   0.044  -0.167  0.00  0.00    +0.000 OA
ENDBRANCH  23  25
ENDBRANCH  22  23
ENDBRANCH  21  22
ENDBRANCH   1  21
BRANCH  11  26
ATOM     26  O   UNL     1       6.529  -2.002   0.972  0.00  0.00    +0.000 OA
BRANCH  26  27
ATOM     27  C   UNL     1       5.474  -2.795   1.519  0.00  0.00    +0.000 C 
BRANCH  27  28
ATOM     28  C   UNL     1       5.904  -3.751   2.619  0.00  0.00    +0.000 C 
BRANCH  28  29
ATOM     29  O   UNL     1       6.444  -3.023   3.718  0.00  0.00    +0.000 OA
ATOM     30  C   UNL     1       6.669  -3.869   4.835  0.00  0.00    +0.000 C 
ENDBRANCH  28  29
ENDBRANCH  27  28
ENDBRANCH  26  27
ENDBRANCH  11  26
TORSDOF 10
