REMARK  Name = 
REMARK  8 active torsions:
REMARK  status: ('A' for Active; 'I' for Inactive)
REMARK    1  A    between atoms: C_1  and  O_2
REMARK    2  A    between atoms: O_2  and  C_3
REMARK    3  A    between atoms: N_10  and  C_11
REMARK    4  A    between atoms: C_21  and  O_22
REMARK    5  A    between atoms: O_22  and  C_23
REMARK    6  A    between atoms: C_23  and  C_24
REMARK    7  A    between atoms: C_24  and  C_25
REMARK    8  A    between atoms: C_25  and  N_26
REMARK                            x       y       z     vdW  Elec       q    Type
REMARK                         _______ _______ _______ _____ _____    ______ ____
ROOT
ATOM      1  C   UNL     1       3.147  -0.927   0.523  0.00  0.00    +0.000 A 
ATOM      2  C   UNL     1       4.318  -1.007   1.294  0.00  0.00    +0.000 A 
ATOM      3  C   UNL     1       4.839  -2.212   1.730  0.00  0.00    +0.000 A 
ATOM      4  N   UNL     1       5.910  -2.183   2.529  0.00  0.00    +0.000 NA
ATOM      5  C   UNL     1       6.359  -3.360   2.972  0.00  0.00    +0.000 A 
ATOM      6  N   UNL     1       5.860  -4.556   2.656  0.00  0.00    +0.000 NA
ATOM      7  C   UNL     1       4.800  -4.577   1.825  0.00  0.00    +0.000 A 
ATOM      8  N   UNL     1       4.272  -5.838   1.425  0.00  0.00    +0.000 N 
ATOM      9  C   UNL     1       4.211  -3.398   1.342  0.00  0.00    +0.000 A 
ATOM     10  C   UNL     1       3.056  -3.335   0.531  0.00  0.00    +0.000 A 
ATOM     11  C   UNL     1       2.539  -2.113   0.101  0.00  0.00    +0.000 A 
ATOM     12  H   UNL     1       4.252  -5.877   0.409  0.00  0.00    +0.000 HD
ENDROOT
BRANCH   8  13
ATOM     13  C   UNL     1       4.643  -7.068   2.013  0.00  0.00    +0.000 A 
ATOM     14  C   UNL     1       4.624  -7.218   3.406  0.00  0.00    +0.000 A 
ATOM     15  C   UNL     1       5.058  -8.397   4.005  0.00  0.00    +0.000 A 
ATOM     16  C   UNL     1       5.517  -9.437   3.207  0.00  0.00    +0.000 A 
ATOM     17  F   UNL     1       5.963 -10.553   3.801  0.00  0.00    +0.000 F 
ATOM     18  C   UNL     1       5.518  -9.317   1.822  0.00  0.00    +0.000 A 
ATOM     19 CL   UNL     1       6.088 -10.606   0.830  0.00  0.00    +0.000 Cl
ATOM     20  C   UNL     1       5.072  -8.133   1.216  0.00  0.00    +0.000 A 
ENDBRANCH   8  13
BRANCH   1  22
ATOM     21  C   UNL     1       2.873   1.359   1.073  0.00  0.00    +0.000 C 
ATOM     22  O   UNL     1       2.553   0.268   0.206  0.00  0.00    +0.000 OA
ENDBRANCH   1  22
BRANCH  11  23
ATOM     23  O   UNL     1       1.391  -2.230  -0.629  0.00  0.00    +0.000 OA
BRANCH  23  24
ATOM     24  C   UNL     1       1.261  -1.390  -1.778  0.00  0.00    +0.000 C 
BRANCH  24  25
ATOM     25  C   UNL     1       0.598  -2.198  -2.908  0.00  0.00    +0.000 C 
BRANCH  25  26
ATOM     26  C   UNL     1      -0.746  -2.786  -2.455  0.00  0.00    +0.000 C 
BRANCH  26  27
ATOM     27  N   UNL     1      -1.457  -3.614  -3.447  0.00  0.00    +0.000 NA
ATOM     28  C   UNL     1      -1.888  -2.890  -4.663  0.00  0.00    +0.000 C 
ATOM     29  C   UNL     1      -3.060  -1.916  -4.448  0.00  0.00    +0.000 C 
ATOM     30  O   UNL     1      -4.185  -2.559  -3.834  0.00  0.00    +0.000 OA
ATOM     31  C   UNL     1      -3.803  -3.183  -2.603  0.00  0.00    +0.000 C 
ATOM     32  C   UNL     1      -2.675  -4.205  -2.830  0.00  0.00    +0.000 C 
ENDBRANCH  26  27
ENDBRANCH  25  26
ENDBRANCH  24  25
ENDBRANCH  23  24
ENDBRANCH  11  23
TORSDOF 7
