MODEL 1
REMARK VINA RESULT:    -9.080      0.000      0.000
REMARK INTER + INTRA:         -14.000
REMARK INTER:                 -12.796
REMARK INTRA:                  -1.204
REMARK UNBOUND:                -1.204
REMARK  Name = 
REMARK  8 active torsions:
REMARK  status: ('A' for Active; 'I' for Inactive)
REMARK    1  A    between atoms: C_1  and  O_2
REMARK    2  A    between atoms: O_2  and  C_3
REMARK    3  A    between atoms: N_10  and  C_11
REMARK    4  A    between atoms: C_21  and  O_22
REMARK    5  A    between atoms: O_22  and  C_23
REMARK    6  A    between atoms: C_23  and  C_24
REMARK    7  A    between atoms: C_24  and  C_25
REMARK    8  A    between atoms: C_25  and  N_26
REMARK                            x       y       z     vdW  Elec       q    Type
REMARK                         _______ _______ _______ _____ _____    ______ ____
ROOT
ATOM      1  C   UNL     1      19.974  -0.078  52.524  0.00  0.00    +0.000 A 
ATOM      2  C   UNL     1      20.384  -0.635  53.745  0.00  0.00    +0.000 A 
ATOM      3  C   UNL     1      21.716  -0.741  54.103  0.00  0.00    +0.000 A 
ATOM      4  N   UNL     1      22.013  -1.362  55.249  0.00  0.00    +0.000 NA
ATOM      5  C   UNL     1      23.310  -1.491  55.542  0.00  0.00    +0.000 A 
ATOM      6  N   UNL     1      24.325  -1.021  54.816  0.00  0.00    +0.000 NA
ATOM      7  C   UNL     1      24.015  -0.368  53.679  0.00  0.00    +0.000 A 
ATOM      8  N   UNL     1      25.071   0.192  52.904  0.00  0.00    +0.000 N 
ATOM      9  C   UNL     1      22.688  -0.222  53.245  0.00  0.00    +0.000 A 
ATOM     10  C   UNL     1      22.288   0.380  52.031  0.00  0.00    +0.000 A 
ATOM     11  C   UNL     1      20.941   0.477  51.681  0.00  0.00    +0.000 A 
ATOM     12  H   UNL     1      24.882   1.181  52.762  0.00  0.00    +0.000 HD
ENDROOT
BRANCH   8  13
ATOM     13  C   UNL     1      26.439  -0.078  53.129  0.00  0.00    +0.000 A 
ATOM     14  C   UNL     1      26.977  -1.326  52.790  0.00  0.00    +0.000 A 
ATOM     15  C   UNL     1      28.304  -1.635  53.073  0.00  0.00    +0.000 A 
ATOM     16  C   UNL     1      29.104  -0.690  53.702  0.00  0.00    +0.000 A 
ATOM     17  F   UNL     1      30.370  -1.015  53.998  0.00  0.00    +0.000 F 
ATOM     18  C   UNL     1      28.596   0.564  54.022  0.00  0.00    +0.000 A 
ATOM     19 CL   UNL     1      29.586   1.739  54.803  0.00  0.00    +0.000 Cl
ATOM     20  C   UNL     1      27.261   0.881  53.728  0.00  0.00    +0.000 A 
ENDBRANCH   8  13
BRANCH   1  22
ATOM     21  C   UNL     1      17.831  -1.056  52.757  0.00  0.00    +0.000 C 
ATOM     22  O   UNL     1      18.667  -0.096  52.106  0.00  0.00    +0.000 OA
ENDBRANCH   1  22
BRANCH  11  23
ATOM     23  O   UNL     1      20.733   1.038  50.453  0.00  0.00    +0.000 OA
BRANCH  23  24
ATOM     24  C   UNL     1      21.890   1.321  49.662  0.00  0.00    +0.000 C 
BRANCH  24  25
ATOM     25  C   UNL     1      22.001   2.845  49.478  0.00  0.00    +0.000 C 
BRANCH  25  26
ATOM     26  C   UNL     1      23.453   3.267  49.210  0.00  0.00    +0.000 C 
BRANCH  26  27
ATOM     27  N   UNL     1      24.100   4.066  50.268  0.00  0.00    +0.000 NA
ATOM     28  C   UNL     1      25.006   5.126  49.776  0.00  0.00    +0.000 C 
ATOM     29  C   UNL     1      26.329   4.614  49.178  0.00  0.00    +0.000 C 
ATOM     30  O   UNL     1      27.028   3.751  50.085  0.00  0.00    +0.000 OA
ATOM     31  C   UNL     1      26.193   2.662  50.495  0.00  0.00    +0.000 C 
ATOM     32  C   UNL     1      24.900   3.176  51.152  0.00  0.00    +0.000 C 
ENDBRANCH  26  27
ENDBRANCH  25  26
ENDBRANCH  24  25
ENDBRANCH  23  24
ENDBRANCH  11  23
TORSDOF 7
ENDMDL
MODEL 2
REMARK VINA RESULT:    -9.013      1.473      1.775
REMARK INTER + INTRA:         -13.905
REMARK INTER:                 -12.592
REMARK INTRA:                  -1.313
REMARK UNBOUND:                -1.204
REMARK  Name = 
REMARK  8 active torsions:
REMARK  status: ('A' for Active; 'I' for Inactive)
REMARK    1  A    between atoms: C_1  and  O_2
REMARK    2  A    between atoms: O_2  and  C_3
REMARK    3  A    between atoms: N_10  and  C_11
REMARK    4  A    between atoms: C_21  and  O_22
REMARK    5  A    between atoms: O_22  and  C_23
REMARK    6  A    between atoms: C_23  and  C_24
REMARK    7  A    between atoms: C_24  and  C_25
REMARK    8  A    between atoms: C_25  and  N_26
REMARK                            x       y       z     vdW  Elec       q    Type
REMARK                         _______ _______ _______ _____ _____    ______ ____
ROOT
ATOM      1  C   UNL     1      19.745  -0.125  52.546  0.00  0.00    +0.000 A 
ATOM      2  C   UNL     1      20.190  -0.663  53.764  0.00  0.00    +0.000 A 
ATOM      3  C   UNL     1      21.530  -0.738  54.097  0.00  0.00    +0.000 A 
ATOM      4  N   UNL     1      21.862  -1.343  55.242  0.00  0.00    +0.000 NA
ATOM      5  C   UNL     1      23.166  -1.442  55.511  0.00  0.00    +0.000 A 
ATOM      6  N   UNL     1      24.158  -0.956  54.763  0.00  0.00    +0.000 NA
ATOM      7  C   UNL     1      23.812  -0.320  53.626  0.00  0.00    +0.000 A 
ATOM      8  N   UNL     1      24.842   0.255  52.827  0.00  0.00    +0.000 N 
ATOM      9  C   UNL     1      22.475  -0.206  53.216  0.00  0.00    +0.000 A 
ATOM     10  C   UNL     1      22.039   0.377  52.006  0.00  0.00    +0.000 A 
ATOM     11  C   UNL     1      20.685   0.443  51.680  0.00  0.00    +0.000 A 
ATOM     12  H   UNL     1      24.630   1.239  52.680  0.00  0.00    +0.000 HD
ENDROOT
BRANCH   8  13
ATOM     13  C   UNL     1      26.219   0.016  53.028  0.00  0.00    +0.000 A 
ATOM     14  C   UNL     1      26.769  -1.238  52.727  0.00  0.00    +0.000 A 
ATOM     15  C   UNL     1      28.107  -1.514  52.989  0.00  0.00    +0.000 A 
ATOM     16  C   UNL     1      28.907  -0.531  53.558  0.00  0.00    +0.000 A 
ATOM     17  F   UNL     1      30.185  -0.824  53.835  0.00  0.00    +0.000 F 
ATOM     18  C   UNL     1      28.387   0.727  53.839  0.00  0.00    +0.000 A 
ATOM     19 CL   UNL     1      29.377   1.948  54.546  0.00  0.00    +0.000 Cl
ATOM     20  C   UNL     1      27.040   1.011  53.567  0.00  0.00    +0.000 A 
ENDBRANCH   8  13
BRANCH   1  22
ATOM     21  C   UNL     1      17.619  -1.119  52.854  0.00  0.00    +0.000 C 
ATOM     22  O   UNL     1      18.432  -0.174  52.153  0.00  0.00    +0.000 OA
ENDBRANCH   1  22
BRANCH  11  23
ATOM     23  O   UNL     1      20.442   0.989  50.452  0.00  0.00    +0.000 OA
BRANCH  23  24
ATOM     24  C   UNL     1      21.438   0.796  49.445  0.00  0.00    +0.000 C 
BRANCH  24  25
ATOM     25  C   UNL     1      21.670   2.132  48.717  0.00  0.00    +0.000 C 
BRANCH  25  26
ATOM     26  C   UNL     1      22.713   2.989  49.449  0.00  0.00    +0.000 C 
BRANCH  26  27
ATOM     27  N   UNL     1      22.337   4.394  49.696  0.00  0.00    +0.000 NA
ATOM     28  C   UNL     1      23.381   5.206  50.357  0.00  0.00    +0.000 C 
ATOM     29  C   UNL     1      23.609   4.873  51.843  0.00  0.00    +0.000 C 
ATOM     30  O   UNL     1      22.391   4.930  52.597  0.00  0.00    +0.000 OA
ATOM     31  C   UNL     1      21.399   4.071  52.023  0.00  0.00    +0.000 C 
ATOM     32  C   UNL     1      21.125   4.447  50.557  0.00  0.00    +0.000 C 
ENDBRANCH  26  27
ENDBRANCH  25  26
ENDBRANCH  24  25
ENDBRANCH  23  24
ENDBRANCH  11  23
TORSDOF 7
ENDMDL
MODEL 3
REMARK VINA RESULT:    -8.727      1.154      1.492
REMARK INTER + INTRA:         -13.502
REMARK INTER:                 -12.425
REMARK INTRA:                  -1.077
REMARK UNBOUND:                -1.204
REMARK  Name = 
REMARK  8 active torsions:
REMARK  status: ('A' for Active; 'I' for Inactive)
REMARK    1  A    between atoms: C_1  and  O_2
REMARK    2  A    between atoms: O_2  and  C_3
REMARK    3  A    between atoms: N_10  and  C_11
REMARK    4  A    between atoms: C_21  and  O_22
REMARK    5  A    between atoms: O_22  and  C_23
REMARK    6  A    between atoms: C_23  and  C_24
REMARK    7  A    between atoms: C_24  and  C_25
REMARK    8  A    between atoms: C_25  and  N_26
REMARK                            x       y       z     vdW  Elec       q    Type
REMARK                         _______ _______ _______ _____ _____    ______ ____
ROOT
ATOM      1  C   UNL     1      19.839  -0.172  52.494  0.00  0.00    +0.000 A 
ATOM      2  C   UNL     1      20.263  -0.727  53.712  0.00  0.00    +0.000 A 
ATOM      3  C   UNL     1      21.594  -0.761  54.089  0.00  0.00    +0.000 A 
ATOM      4  N   UNL     1      21.910  -1.385  55.228  0.00  0.00    +0.000 NA
ATOM      5  C   UNL     1      23.207  -1.443  55.539  0.00  0.00    +0.000 A 
ATOM      6  N   UNL     1      24.204  -0.902  54.838  0.00  0.00    +0.000 NA
ATOM      7  C   UNL     1      23.873  -0.248  53.707  0.00  0.00    +0.000 A 
ATOM      8  N   UNL     1      24.905   0.386  52.959  0.00  0.00    +0.000 N 
ATOM      9  C   UNL     1      22.546  -0.171  53.255  0.00  0.00    +0.000 A 
ATOM     10  C   UNL     1      22.129   0.428  52.046  0.00  0.00    +0.000 A 
ATOM     11  C   UNL     1      20.785   0.453  51.676  0.00  0.00    +0.000 A 
ATOM     12  H   UNL     1      24.662   1.365  52.830  0.00  0.00    +0.000 HD
ENDROOT
BRANCH   8  13
ATOM     13  C   UNL     1      26.284   0.192  53.200  0.00  0.00    +0.000 A 
ATOM     14  C   UNL     1      27.099   1.278  53.547  0.00  0.00    +0.000 A 
ATOM     15  C   UNL     1      28.472   1.118  53.714  0.00  0.00    +0.000 A 
ATOM     16  C   UNL     1      29.038  -0.137  53.533  0.00  0.00    +0.000 A 
ATOM     17  F   UNL     1      30.365  -0.267  53.664  0.00  0.00    +0.000 F 
ATOM     18  C   UNL     1      28.242  -1.232  53.215  0.00  0.00    +0.000 A 
ATOM     19 CL   UNL     1      28.942  -2.790  52.988  0.00  0.00    +0.000 Cl
ATOM     20  C   UNL     1      26.857  -1.074  53.055  0.00  0.00    +0.000 A 
ENDBRANCH   8  13
BRANCH   1  22
ATOM     21  C   UNL     1      17.707  -1.156  52.791  0.00  0.00    +0.000 C 
ATOM     22  O   UNL     1      18.542  -0.259  52.055  0.00  0.00    +0.000 OA
ENDBRANCH   1  22
BRANCH  11  23
ATOM     23  O   UNL     1      20.563   1.023  50.455  0.00  0.00    +0.000 OA
BRANCH  23  24
ATOM     24  C   UNL     1      21.623   0.950  49.499  0.00  0.00    +0.000 C 
BRANCH  24  25
ATOM     25  C   UNL     1      21.536   2.174  48.570  0.00  0.00    +0.000 C 
BRANCH  25  26
ATOM     26  C   UNL     1      22.755   3.091  48.745  0.00  0.00    +0.000 C 
BRANCH  26  27
ATOM     27  N   UNL     1      23.154   3.379  50.135  0.00  0.00    +0.000 NA
ATOM     28  C   UNL     1      23.183   4.816  50.486  0.00  0.00    +0.000 C 
ATOM     29  C   UNL     1      24.343   5.607  49.855  0.00  0.00    +0.000 C 
ATOM     30  O   UNL     1      25.615   5.007  50.134  0.00  0.00    +0.000 OA
ATOM     31  C   UNL     1      25.635   3.640  49.709  0.00  0.00    +0.000 C 
ATOM     32  C   UNL     1      24.515   2.834  50.392  0.00  0.00    +0.000 C 
ENDBRANCH  26  27
ENDBRANCH  25  26
ENDBRANCH  24  25
ENDBRANCH  23  24
ENDBRANCH  11  23
TORSDOF 7
ENDMDL
MODEL 4
REMARK VINA RESULT:    -8.357      3.230      6.143
REMARK INTER + INTRA:         -12.981
REMARK INTER:                 -11.774
REMARK INTRA:                  -1.207
REMARK UNBOUND:                -1.204
REMARK  Name = 
REMARK  8 active torsions:
REMARK  status: ('A' for Active; 'I' for Inactive)
REMARK    1  A    between atoms: C_1  and  O_2
REMARK    2  A    between atoms: O_2  and  C_3
REMARK    3  A    between atoms: N_10  and  C_11
REMARK    4  A    between atoms: C_21  and  O_22
REMARK    5  A    between atoms: O_22  and  C_23
REMARK    6  A    between atoms: C_23  and  C_24
REMARK    7  A    between atoms: C_24  and  C_25
REMARK    8  A    between atoms: C_25  and  N_26
REMARK                            x       y       z     vdW  Elec       q    Type
REMARK                         _______ _______ _______ _____ _____    ______ ____
ROOT
ATOM      1  C   UNL     1      21.666   0.161  52.019  0.00  0.00    +0.000 A 
ATOM      2  C   UNL     1      21.294   0.624  50.746  0.00  0.00    +0.000 A 
ATOM      3  C   UNL     1      22.014   1.590  50.068  0.00  0.00    +0.000 A 
ATOM      4  N   UNL     1      21.536   2.028  48.899  0.00  0.00    +0.000 NA
ATOM      5  C   UNL     1      22.229   2.995  48.292  0.00  0.00    +0.000 A 
ATOM      6  N   UNL     1      23.369   3.531  48.729  0.00  0.00    +0.000 NA
ATOM      7  C   UNL     1      23.860   3.062  49.892  0.00  0.00    +0.000 A 
ATOM      8  N   UNL     1      25.103   3.574  50.364  0.00  0.00    +0.000 N 
ATOM      9  C   UNL     1      23.188   2.085  50.643  0.00  0.00    +0.000 A 
ATOM     10  C   UNL     1      23.597   1.598  51.904  0.00  0.00    +0.000 A 
ATOM     11  C   UNL     1      22.860   0.625  52.579  0.00  0.00    +0.000 A 
ATOM     12  H   UNL     1      25.737   2.796  50.528  0.00  0.00    +0.000 HD
ENDROOT
BRANCH   8  13
ATOM     13  C   UNL     1      25.751   4.700  49.810  0.00  0.00    +0.000 A 
ATOM     14  C   UNL     1      26.874   4.535  48.988  0.00  0.00    +0.000 A 
ATOM     15  C   UNL     1      27.568   5.636  48.495  0.00  0.00    +0.000 A 
ATOM     16  C   UNL     1      27.140   6.915  48.826  0.00  0.00    +0.000 A 
ATOM     17  F   UNL     1      27.840   7.964  48.370  0.00  0.00    +0.000 F 
ATOM     18  C   UNL     1      26.012   7.099  49.617  0.00  0.00    +0.000 A 
ATOM     19 CL   UNL     1      25.479   8.686  50.029  0.00  0.00    +0.000 Cl
ATOM     20  C   UNL     1      25.305   5.991  50.107  0.00  0.00    +0.000 A 
ENDBRANCH   8  13
BRANCH   1  22
ATOM     21  C   UNL     1      19.677  -0.124  53.271  0.00  0.00    +0.000 C 
ATOM     22  O   UNL     1      20.882  -0.693  52.751  0.00  0.00    +0.000 OA
ENDBRANCH   1  22
BRANCH  11  23
ATOM     23  O   UNL     1      23.366   0.307  53.806  0.00  0.00    +0.000 OA
BRANCH  23  24
ATOM     24  C   UNL     1      24.046  -0.945  53.926  0.00  0.00    +0.000 C 
BRANCH  24  25
ATOM     25  C   UNL     1      25.124  -0.819  55.018  0.00  0.00    +0.000 C 
BRANCH  25  26
ATOM     26  C   UNL     1      26.137   0.282  54.673  0.00  0.00    +0.000 C 
BRANCH  26  27
ATOM     27  N   UNL     1      27.291  -0.134  53.854  0.00  0.00    +0.000 NA
ATOM     28  C   UNL     1      28.600   0.366  54.330  0.00  0.00    +0.000 C 
ATOM     29  C   UNL     1      28.828   1.872  54.114  0.00  0.00    +0.000 C 
ATOM     30  O   UNL     1      28.623   2.255  52.747  0.00  0.00    +0.000 OA
ATOM     31  C   UNL     1      27.319   1.863  52.301  0.00  0.00    +0.000 C 
ATOM     32  C   UNL     1      27.116   0.346  52.457  0.00  0.00    +0.000 C 
ENDBRANCH  26  27
ENDBRANCH  25  26
ENDBRANCH  24  25
ENDBRANCH  23  24
ENDBRANCH  11  23
TORSDOF 7
ENDMDL
MODEL 5
REMARK VINA RESULT:    -8.059      3.874      6.706
REMARK INTER + INTRA:         -12.561
REMARK INTER:                 -12.196
REMARK INTRA:                  -0.365
REMARK UNBOUND:                -1.204
REMARK  Name = 
REMARK  8 active torsions:
REMARK  status: ('A' for Active; 'I' for Inactive)
REMARK    1  A    between atoms: C_1  and  O_2
REMARK    2  A    between atoms: O_2  and  C_3
REMARK    3  A    between atoms: N_10  and  C_11
REMARK    4  A    between atoms: C_21  and  O_22
REMARK    5  A    between atoms: O_22  and  C_23
REMARK    6  A    between atoms: C_23  and  C_24
REMARK    7  A    between atoms: C_24  and  C_25
REMARK    8  A    between atoms: C_25  and  N_26
REMARK                            x       y       z     vdW  Elec       q    Type
REMARK                         _______ _______ _______ _____ _____    ______ ____
ROOT
ATOM      1  C   UNL     1      27.699   1.582  53.229  0.00  0.00    +0.000 A 
ATOM      2  C   UNL     1      27.238   0.627  54.151  0.00  0.00    +0.000 A 
ATOM      3  C   UNL     1      25.933   0.168  54.154  0.00  0.00    +0.000 A 
ATOM      4  N   UNL     1      25.566  -0.678  55.122  0.00  0.00    +0.000 NA
ATOM      5  C   UNL     1      24.288  -1.064  55.126  0.00  0.00    +0.000 A 
ATOM      6  N   UNL     1      23.362  -0.714  54.231  0.00  0.00    +0.000 NA
ATOM      7  C   UNL     1      23.750   0.113  53.241  0.00  0.00    +0.000 A 
ATOM      8  N   UNL     1      22.802   0.468  52.239  0.00  0.00    +0.000 N 
ATOM      9  C   UNL     1      25.055   0.626  53.170  0.00  0.00    +0.000 A 
ATOM     10  C   UNL     1      25.516   1.555  52.210  0.00  0.00    +0.000 A 
ATOM     11  C   UNL     1      26.833   2.012  52.220  0.00  0.00    +0.000 A 
ATOM     12  H   UNL     1      23.191   0.242  51.327  0.00  0.00    +0.000 HD
ENDROOT
BRANCH   8  13
ATOM     13  C   UNL     1      21.420   0.189  52.329  0.00  0.00    +0.000 A 
ATOM     14  C   UNL     1      20.907  -0.476  53.451  0.00  0.00    +0.000 A 
ATOM     15  C   UNL     1      19.562  -0.825  53.522  0.00  0.00    +0.000 A 
ATOM     16  C   UNL     1      18.719  -0.509  52.464  0.00  0.00    +0.000 A 
ATOM     17  F   UNL     1      17.433  -0.882  52.534  0.00  0.00    +0.000 F 
ATOM     18  C   UNL     1      19.204   0.175  51.355  0.00  0.00    +0.000 A 
ATOM     19 CL   UNL     1      18.161   0.568  50.041  0.00  0.00    +0.000 Cl
ATOM     20  C   UNL     1      20.558   0.536  51.286  0.00  0.00    +0.000 A 
ENDBRANCH   8  13
BRANCH   1  22
ATOM     21  C   UNL     1      29.648   1.903  54.534  0.00  0.00    +0.000 C 
ATOM     22  O   UNL     1      28.949   2.140  53.309  0.00  0.00    +0.000 OA
ENDBRANCH   1  22
BRANCH  11  23
ATOM     23  O   UNL     1      27.097   2.945  51.258  0.00  0.00    +0.000 OA
BRANCH  23  24
ATOM     24  C   UNL     1      26.374   2.836  50.030  0.00  0.00    +0.000 C 
BRANCH  24  25
ATOM     25  C   UNL     1      26.145   4.249  49.464  0.00  0.00    +0.000 C 
BRANCH  25  26
ATOM     26  C   UNL     1      24.703   4.716  49.704  0.00  0.00    +0.000 C 
BRANCH  26  27
ATOM     27  N   UNL     1      24.350   5.036  51.100  0.00  0.00    +0.000 NA
ATOM     28  C   UNL     1      23.165   4.318  51.619  0.00  0.00    +0.000 C 
ATOM     29  C   UNL     1      21.822   4.793  51.037  0.00  0.00    +0.000 C 
ATOM     30  O   UNL     1      21.644   6.208  51.187  0.00  0.00    +0.000 OA
ATOM     31  C   UNL     1      22.739   6.922  50.601  0.00  0.00    +0.000 C 
ATOM     32  C   UNL     1      24.076   6.492  51.230  0.00  0.00    +0.000 C 
ENDBRANCH  26  27
ENDBRANCH  25  26
ENDBRANCH  24  25
ENDBRANCH  23  24
ENDBRANCH  11  23
TORSDOF 7
ENDMDL
MODEL 6
REMARK VINA RESULT:    -7.999      4.241      6.824
REMARK INTER + INTRA:         -12.477
REMARK INTER:                 -10.937
REMARK INTRA:                  -1.540
REMARK UNBOUND:                -1.204
REMARK  Name = 
REMARK  8 active torsions:
REMARK  status: ('A' for Active; 'I' for Inactive)
REMARK    1  A    between atoms: C_1  and  O_2
REMARK    2  A    between atoms: O_2  and  C_3
REMARK    3  A    between atoms: N_10  and  C_11
REMARK    4  A    between atoms: C_21  and  O_22
REMARK    5  A    between atoms: O_22  and  C_23
REMARK    6  A    between atoms: C_23  and  C_24
REMARK    7  A    between atoms: C_24  and  C_25
REMARK    8  A    between atoms: C_25  and  N_26
REMARK                            x       y       z     vdW  Elec       q    Type
REMARK                         _______ _______ _______ _____ _____    ______ ____
ROOT
ATOM      1  C   UNL     1      26.204  -0.502  53.797  0.00  0.00    +0.000 A 
ATOM      2  C   UNL     1      25.141  -1.006  54.565  0.00  0.00    +0.000 A 
ATOM      3  C   UNL     1      23.818  -0.734  54.270  0.00  0.00    +0.000 A 
ATOM      4  N   UNL     1      22.880  -1.189  55.107  0.00  0.00    +0.000 NA
ATOM      5  C   UNL     1      21.615  -0.867  54.821  0.00  0.00    +0.000 A 
ATOM      6  N   UNL     1      21.207  -0.171  53.760  0.00  0.00    +0.000 NA
ATOM      7  C   UNL     1      22.156   0.256  52.905  0.00  0.00    +0.000 A 
ATOM      8  N   UNL     1      21.753   0.959  51.733  0.00  0.00    +0.000 N 
ATOM      9  C   UNL     1      23.521   0.024  53.134  0.00  0.00    +0.000 A 
ATOM     10  C   UNL     1      24.578   0.503  52.328  0.00  0.00    +0.000 A 
ATOM     11  C   UNL     1      25.909   0.223  52.638  0.00  0.00    +0.000 A 
ATOM     12  H   UNL     1      22.144   0.490  50.920  0.00  0.00    +0.000 HD
ENDROOT
BRANCH   8  13
ATOM     13  C   UNL     1      20.440   1.432  51.513  0.00  0.00    +0.000 A 
ATOM     14  C   UNL     1      20.079   2.724  51.920  0.00  0.00    +0.000 A 
ATOM     15  C   UNL     1      18.772   3.179  51.779  0.00  0.00    +0.000 A 
ATOM     16  C   UNL     1      17.813   2.338  51.229  0.00  0.00    +0.000 A 
ATOM     17  F   UNL     1      16.551   2.780  51.132  0.00  0.00    +0.000 F 
ATOM     18  C   UNL     1      18.158   1.063  50.795  0.00  0.00    +0.000 A 
ATOM     19 CL   UNL     1      16.970   0.017  50.113  0.00  0.00    +0.000 Cl
ATOM     20  C   UNL     1      19.478   0.606  50.927  0.00  0.00    +0.000 A 
ENDBRANCH   8  13
BRANCH   1  22
ATOM     21  C   UNL     1      28.080   0.440  54.891  0.00  0.00    +0.000 C 
ATOM     22  O   UNL     1      27.516  -0.655  54.163  0.00  0.00    +0.000 OA
ENDBRANCH   1  22
BRANCH  11  23
ATOM     23  O   UNL     1      26.804   0.806  51.787  0.00  0.00    +0.000 OA
BRANCH  23  24
ATOM     24  C   UNL     1      26.848   2.235  51.767  0.00  0.00    +0.000 C 
BRANCH  24  25
ATOM     25  C   UNL     1      26.476   2.720  50.355  0.00  0.00    +0.000 C 
BRANCH  25  26
ATOM     26  C   UNL     1      25.391   3.806  50.410  0.00  0.00    +0.000 C 
BRANCH  26  27
ATOM     27  N   UNL     1      24.026   3.341  50.720  0.00  0.00    +0.000 NA
ATOM     28  C   UNL     1      23.037   3.560  49.642  0.00  0.00    +0.000 C 
ATOM     29  C   UNL     1      22.627   5.029  49.436  0.00  0.00    +0.000 C 
ATOM     30  O   UNL     1      22.169   5.633  50.653  0.00  0.00    +0.000 OA
ATOM     31  C   UNL     1      23.158   5.515  51.682  0.00  0.00    +0.000 C 
ATOM     32  C   UNL     1      23.520   4.040  51.932  0.00  0.00    +0.000 C 
ENDBRANCH  26  27
ENDBRANCH  25  26
ENDBRANCH  24  25
ENDBRANCH  23  24
ENDBRANCH  11  23
TORSDOF 7
ENDMDL
MODEL 7
REMARK VINA RESULT:    -7.881      2.520      5.847
REMARK INTER + INTRA:         -12.310
REMARK INTER:                 -11.181
REMARK INTRA:                  -1.129
REMARK UNBOUND:                -1.204
REMARK  Name = 
REMARK  8 active torsions:
REMARK  status: ('A' for Active; 'I' for Inactive)
REMARK    1  A    between atoms: C_1  and  O_2
REMARK    2  A    between atoms: O_2  and  C_3
REMARK    3  A    between atoms: N_10  and  C_11
REMARK    4  A    between atoms: C_21  and  O_22
REMARK    5  A    between atoms: O_22  and  C_23
REMARK    6  A    between atoms: C_23  and  C_24
REMARK    7  A    between atoms: C_24  and  C_25
REMARK    8  A    between atoms: C_25  and  N_26
REMARK                            x       y       z     vdW  Elec       q    Type
REMARK                         _______ _______ _______ _____ _____    ______ ____
ROOT
ATOM      1  C   UNL     1      22.689   5.820  49.613  0.00  0.00    +0.000 A 
ATOM      2  C   UNL     1      23.958   5.759  49.015  0.00  0.00    +0.000 A 
ATOM      3  C   UNL     1      24.936   4.876  49.437  0.00  0.00    +0.000 A 
ATOM      4  N   UNL     1      26.141   4.950  48.863  0.00  0.00    +0.000 NA
ATOM      5  C   UNL     1      27.077   4.117  49.326  0.00  0.00    +0.000 A 
ATOM      6  N   UNL     1      26.904   3.197  50.276  0.00  0.00    +0.000 NA
ATOM      7  C   UNL     1      25.677   3.109  50.827  0.00  0.00    +0.000 A 
ATOM      8  N   UNL     1      25.441   2.104  51.808  0.00  0.00    +0.000 N 
ATOM      9  C   UNL     1      24.633   3.971  50.456  0.00  0.00    +0.000 A 
ATOM     10  C   UNL     1      23.346   3.991  51.038  0.00  0.00    +0.000 A 
ATOM     11  C   UNL     1      22.370   4.889  50.606  0.00  0.00    +0.000 A 
ATOM     12  H   UNL     1      24.644   1.543  51.517  0.00  0.00    +0.000 HD
ENDROOT
BRANCH   8  13
ATOM     13  C   UNL     1      26.463   1.334  52.407  0.00  0.00    +0.000 A 
ATOM     14  C   UNL     1      27.523   1.965  53.073  0.00  0.00    +0.000 A 
ATOM     15  C   UNL     1      28.576   1.225  53.602  0.00  0.00    +0.000 A 
ATOM     16  C   UNL     1      28.574  -0.157  53.466  0.00  0.00    +0.000 A 
ATOM     17  F   UNL     1      29.613  -0.851  53.953  0.00  0.00    +0.000 F 
ATOM     18  C   UNL     1      27.518  -0.802  52.833  0.00  0.00    +0.000 A 
ATOM     19 CL   UNL     1      27.514  -2.517  52.663  0.00  0.00    +0.000 Cl
ATOM     20  C   UNL     1      26.451  -0.060  52.307  0.00  0.00    +0.000 A 
ENDBRANCH   8  13
BRANCH   1  22
ATOM     21  C   UNL     1      21.044   6.557  48.079  0.00  0.00    +0.000 C 
ATOM     22  O   UNL     1      21.767   6.783  49.291  0.00  0.00    +0.000 OA
ENDBRANCH   1  22
BRANCH  11  23
ATOM     23  O   UNL     1      21.202   4.810  51.310  0.00  0.00    +0.000 OA
BRANCH  23  24
ATOM     24  C   UNL     1      20.156   4.014  50.750  0.00  0.00    +0.000 C 
BRANCH  24  25
ATOM     25  C   UNL     1      19.447   3.259  51.888  0.00  0.00    +0.000 C 
BRANCH  25  26
ATOM     26  C   UNL     1      20.413   2.309  52.610  0.00  0.00    +0.000 C 
BRANCH  26  27
ATOM     27  N   UNL     1      20.418   0.911  52.140  0.00  0.00    +0.000 NA
ATOM     28  C   UNL     1      19.887  -0.071  53.111  0.00  0.00    +0.000 C 
ATOM     29  C   UNL     1      20.804  -0.340  54.317  0.00  0.00    +0.000 C 
ATOM     30  O   UNL     1      22.127  -0.716  53.911  0.00  0.00    +0.000 OA
ATOM     31  C   UNL     1      22.693   0.275  53.046  0.00  0.00    +0.000 C 
ATOM     32  C   UNL     1      21.807   0.496  51.807  0.00  0.00    +0.000 C 
ENDBRANCH  26  27
ENDBRANCH  25  26
ENDBRANCH  24  25
ENDBRANCH  23  24
ENDBRANCH  11  23
TORSDOF 7
ENDMDL
MODEL 8
REMARK VINA RESULT:    -7.782      3.654      6.291
REMARK INTER + INTRA:         -12.170
REMARK INTER:                 -11.921
REMARK INTRA:                  -0.250
REMARK UNBOUND:                -1.204
REMARK  Name = 
REMARK  8 active torsions:
REMARK  status: ('A' for Active; 'I' for Inactive)
REMARK    1  A    between atoms: C_1  and  O_2
REMARK    2  A    between atoms: O_2  and  C_3
REMARK    3  A    between atoms: N_10  and  C_11
REMARK    4  A    between atoms: C_21  and  O_22
REMARK    5  A    between atoms: O_22  and  C_23
REMARK    6  A    between atoms: C_23  and  C_24
REMARK    7  A    between atoms: C_24  and  C_25
REMARK    8  A    between atoms: C_25  and  N_26
REMARK                            x       y       z     vdW  Elec       q    Type
REMARK                         _______ _______ _______ _____ _____    ______ ____
ROOT
ATOM      1  C   UNL     1      23.867   5.762  48.390  0.00  0.00    +0.000 A 
ATOM      2  C   UNL     1      23.068   4.765  48.973  0.00  0.00    +0.000 A 
ATOM      3  C   UNL     1      23.572   3.839  49.869  0.00  0.00    +0.000 A 
ATOM      4  N   UNL     1      22.755   2.876  50.306  0.00  0.00    +0.000 NA
ATOM      5  C   UNL     1      23.285   1.970  51.132  0.00  0.00    +0.000 A 
ATOM      6  N   UNL     1      24.539   1.965  51.586  0.00  0.00    +0.000 NA
ATOM      7  C   UNL     1      25.346   2.958  51.165  0.00  0.00    +0.000 A 
ATOM      8  N   UNL     1      26.677   3.014  51.669  0.00  0.00    +0.000 N 
ATOM      9  C   UNL     1      24.912   3.933  50.254  0.00  0.00    +0.000 A 
ATOM     10  C   UNL     1      25.717   4.957  49.708  0.00  0.00    +0.000 A 
ATOM     11  C   UNL     1      25.197   5.882  48.802  0.00  0.00    +0.000 A 
ATOM     12  H   UNL     1      26.834   3.933  52.076  0.00  0.00    +0.000 HD
ENDROOT
BRANCH   8  13
ATOM     13  C   UNL     1      27.281   1.976  52.412  0.00  0.00    +0.000 A 
ATOM     14  C   UNL     1      28.299   2.265  53.330  0.00  0.00    +0.000 A 
ATOM     15  C   UNL     1      28.956   1.247  54.015  0.00  0.00    +0.000 A 
ATOM     16  C   UNL     1      28.597  -0.074  53.780  0.00  0.00    +0.000 A 
ATOM     17  F   UNL     1      29.263  -1.044  54.422  0.00  0.00    +0.000 F 
ATOM     18  C   UNL     1      27.571  -0.379  52.892  0.00  0.00    +0.000 A 
ATOM     19 CL   UNL     1      27.124  -2.018  52.599  0.00  0.00    +0.000 Cl
ATOM     20  C   UNL     1      26.901   0.646  52.209  0.00  0.00    +0.000 A 
ENDBRANCH   8  13
BRANCH   1  22
ATOM     21  C   UNL     1      23.029   7.904  47.829  0.00  0.00    +0.000 C 
ATOM     22  O   UNL     1      23.405   6.592  47.401  0.00  0.00    +0.000 OA
ENDBRANCH   1  22
BRANCH  11  23
ATOM     23  O   UNL     1      26.123   6.770  48.333  0.00  0.00    +0.000 OA
BRANCH  23  24
ATOM     24  C   UNL     1      27.489   6.351  48.339  0.00  0.00    +0.000 C 
BRANCH  24  25
ATOM     25  C   UNL     1      28.358   7.492  47.781  0.00  0.00    +0.000 C 
BRANCH  25  26
ATOM     26  C   UNL     1      29.556   7.777  48.699  0.00  0.00    +0.000 C 
BRANCH  26  27
ATOM     27  N   UNL     1      30.889   7.651  48.080  0.00  0.00    +0.000 NA
ATOM     28  C   UNL     1      31.023   6.535  47.119  0.00  0.00    +0.000 C 
ATOM     29  C   UNL     1      31.049   5.136  47.760  0.00  0.00    +0.000 C 
ATOM     30  O   UNL     1      32.054   5.032  48.777  0.00  0.00    +0.000 OA
ATOM     31  C   UNL     1      31.878   6.049  49.770  0.00  0.00    +0.000 C 
ATOM     32  C   UNL     1      31.918   7.451  49.136  0.00  0.00    +0.000 C 
ENDBRANCH  26  27
ENDBRANCH  25  26
ENDBRANCH  24  25
ENDBRANCH  23  24
ENDBRANCH  11  23
TORSDOF 7
ENDMDL
MODEL 9
REMARK VINA RESULT:    -7.496      3.514      5.459
REMARK INTER + INTRA:         -11.768
REMARK INTER:                 -10.646
REMARK INTRA:                  -1.122
REMARK UNBOUND:                -1.204
REMARK  Name = 
REMARK  8 active torsions:
REMARK  status: ('A' for Active; 'I' for Inactive)
REMARK    1  A    between atoms: C_1  and  O_2
REMARK    2  A    between atoms: O_2  and  C_3
REMARK    3  A    between atoms: N_10  and  C_11
REMARK    4  A    between atoms: C_21  and  O_22
REMARK    5  A    between atoms: O_22  and  C_23
REMARK    6  A    between atoms: C_23  and  C_24
REMARK    7  A    between atoms: C_24  and  C_25
REMARK    8  A    between atoms: C_25  and  N_26
REMARK                            x       y       z     vdW  Elec       q    Type
REMARK                         _______ _______ _______ _____ _____    ______ ____
ROOT
ATOM      1  C   UNL     1      23.202  -0.358  53.083  0.00  0.00    +0.000 A 
ATOM      2  C   UNL     1      24.559  -0.205  53.411  0.00  0.00    +0.000 A 
ATOM      3  C   UNL     1      25.352   0.778  52.848  0.00  0.00    +0.000 A 
ATOM      4  N   UNL     1      26.652   0.793  53.158  0.00  0.00    +0.000 NA
ATOM      5  C   UNL     1      27.400   1.723  52.560  0.00  0.00    +0.000 A 
ATOM      6  N   UNL     1      26.959   2.658  51.717  0.00  0.00    +0.000 NA
ATOM      7  C   UNL     1      25.642   2.655  51.435  0.00  0.00    +0.000 A 
ATOM      8  N   UNL     1      25.126   3.670  50.579  0.00  0.00    +0.000 N 
ATOM      9  C   UNL     1      24.771   1.689  51.963  0.00  0.00    +0.000 A 
ATOM     10  C   UNL     1      23.397   1.574  51.656  0.00  0.00    +0.000 A 
ATOM     11  C   UNL     1      22.608   0.576  52.229  0.00  0.00    +0.000 A 
ATOM     12  H   UNL     1      24.364   4.145  51.057  0.00  0.00    +0.000 HD
ENDROOT
BRANCH   8  13
ATOM     13  C   UNL     1      25.935   4.551  49.827  0.00  0.00    +0.000 A 
ATOM     14  C   UNL     1      27.060   4.067  49.147  0.00  0.00    +0.000 A 
ATOM     15  C   UNL     1      27.910   4.933  48.464  0.00  0.00    +0.000 A 
ATOM     16  C   UNL     1      27.636   6.294  48.460  0.00  0.00    +0.000 A 
ATOM     17  F   UNL     1      28.483   7.118  47.826  0.00  0.00    +0.000 F 
ATOM     18  C   UNL     1      26.509   6.789  49.106  0.00  0.00    +0.000 A 
ATOM     19 CL   UNL     1      26.167   8.479  49.103  0.00  0.00    +0.000 Cl
ATOM     20  C   UNL     1      25.646   5.918  49.787  0.00  0.00    +0.000 A 
ENDBRANCH   8  13
BRANCH   1  22
ATOM     21  C   UNL     1      22.204  -1.431  54.942  0.00  0.00    +0.000 C 
ATOM     22  O   UNL     1      22.449  -1.412  53.533  0.00  0.00    +0.000 OA
ENDBRANCH   1  22
BRANCH  11  23
ATOM     23  O   UNL     1      21.317   0.574  51.784  0.00  0.00    +0.000 OA
BRANCH  23  24
ATOM     24  C   UNL     1      21.114   0.696  50.374  0.00  0.00    +0.000 C 
BRANCH  24  25
ATOM     25  C   UNL     1      20.344   2.000  50.098  0.00  0.00    +0.000 C 
BRANCH  25  26
ATOM     26  C   UNL     1      20.997   2.800  48.962  0.00  0.00    +0.000 C 
BRANCH  26  27
ATOM     27  N   UNL     1      22.055   3.746  49.363  0.00  0.00    +0.000 NA
ATOM     28  C   UNL     1      21.665   4.698  50.425  0.00  0.00    +0.000 C 
ATOM     29  C   UNL     1      20.682   5.793  49.976  0.00  0.00    +0.000 C 
ATOM     30  O   UNL     1      21.162   6.506  48.828  0.00  0.00    +0.000 OA
ATOM     31  C   UNL     1      21.453   5.604  47.755  0.00  0.00    +0.000 C 
ATOM     32  C   UNL     1      22.486   4.549  48.187  0.00  0.00    +0.000 C 
ENDBRANCH  26  27
ENDBRANCH  25  26
ENDBRANCH  24  25
ENDBRANCH  23  24
ENDBRANCH  11  23
TORSDOF 7
ENDMDL
